1 : quinoxalin-BPO.inp
2 : 00
3 : 64
----- GAMESS execution script 'rungms' -----
This job is running on host cn18
under operating system Linux at Mon Mar 4 14:10:09 CST 2024
Available scratch disk space (Kbyte units) at beginning of the job is
Filesystem        1K-blocks       Used    Available Use% Mounted on
sn1-ib0:/user  349567971584 3431260416 346136711168   1% /user
GAMESS temporary binary files will be written to /user/nizg2020/scratch/gamess
GAMESS supplementary output files will be written to /user/nizg2020/scratch/gamess
Copying input file /user/nizg2020/zhigang/TESTS/BPO/LLY/quinoxalin/quinoxalin-BPO.inp to your run's scratch directory...
 
Assuming a single but multicore node.
 

 Distributed Data Interface kickoff program.
 Initiating 64 compute processes on 1 nodes to run the following command:
 /user/nizg2020/software/gamess/gamess.00.x quinoxalin-BPO 

          *******************************************************
          *                                                     *
          *          GAMESS VERSION = 30 SEP 2023 (R2)          *
          *                                                     *
          *              doi.org/10.1063/5.0005188              *
          *                                                     *
          **************** 64 BIT LINUX VERSION *****************

  GAMESS HAS BEEN MADE POSSIBLE WITH IMPORTANT CONTRIBUTIONS FROM
  THE FOLLOWING INDIVIDUALS (IN ALPHABETICAL ORDER):

     IVANA ADAMOVIC, CHRISTINE AIKENS, TOMOKO AKAMA,
     MELISA ALKAN, YURI ALEXEEV, YURIKO AOKI, POOJA ARORA,
     TOSHIO ASADA, ANDREY ASADCHEV, KIM K. BALDRIDGE,
     PRADIPTA BANDYOPADHYAY, TAYLOR A. BARNES, MARIA BARYSZ,
     ROB BELL, JONATHAN BENTZ, COLLEEN BERTONI,
     JERRY A. BOATZ, BRETT BODE, KURT BRORSEN, KURT R. BRORSEN,
     LAIMUTIS BYTAUTAS, CALEB CARLIN, LAURA CARRINGTON,
     GALINA CHABAN, BENOIT CHAMPAGNE, WEI CHEN, MAHITO CHIBA,
     DAN CHIPMAN, CHEOL HO CHOI, TANNER CULPITT,
     DIPAYAN DATTA, PAUL DAY, ALBERT DEFUSCO,
     NUWAN DESILVA, J. EMILIANO DEUSTUA,
     TIM DUDLEY, MICHEL DUPUIS, STEVEN T. ELBERT,
     DMITRI FEDOROV, KATHERINE FERRERAS, MICHAEL FILATOV,
     ALEX FINDLATER,GRAHAM FLETCHER, MARK FREITAG,
     CHRISTIAN FRIEDL, DAVID GARMER, 
     IGOR S. GERASIMOV, KURT GLAESEMANN,
     MARK S. GORDON, JEFFREY R. GOUR, FENG LONG GU,
     EMILIE B. GUIDEZ, ANASTASIA GUNINA, SHARON HAMMES-SCHIFFER,
     MASATAKE HARUTA, KIMIHIKO HIRAO, YASUHIRO IKABATA,
     TZVETELIN IORDANOV, STEPHAN IRLE, KAZUYA ISHIMURA,
     JOE IVANIC, FRANK JENSEN, JAN H. JENSEN, VISVALDAS KAIRYS,
     MUNEAKI KAMIYA, MICHIO KATOUDA, NAOAKI KAWAKAMI, DAN KEMP,
     BERNARD KIRTMAN, KAZUO KITAURA, MARIUSZ KLOBUKOWSKI,
     MASATO KOBAYASHI, KONSTANTIN KOMAROV, PRAKASHAN KORAMBATH,
     JACEK KORCHOWIEC, SHIRO KOSEKI, KAROL KOWALSKI,
     JIMMY KROMANN, STANISLAW A. KUCHARSKI, HENRY KURTZ,
     SAROM SOK LEANG, SEUNGHOON LEE, HUI LI, SHUHUA LI, WEI LI,
     JESSE J. LUTZ, ALEKSANDR O. LYKHIN,
     ILIAS MAGOULAS, MARCIN MAKOWSKI,
     JOANI MATO, NIKITA MATSUNAGA, BENEDETTA MENNUCCI,
     GRANT MERRILL, NORIYUKI MINEZAWA, VLADIMIR MIRONOV,
     EISAKU MIYOSHI, JOHN A. MONTGOMERY JR., HIROTOSHI MORI,
     JONATHAN MULLIN, MONIKA MUSIAL, SHIGERU NAGASE,
     TAKESHI NAGATA, HIROMI NAKAI, TAKAHITO NAKAJIMA,
     YUYA NAKAJIMA, HARUYUKI NAKANO, HIROYA NAKATA, SEAN NEDD,
     HEATHER NETZLOFF, KIET A. NGUYEN, YOSHIO NISHIMOTO,
     BOSILJKA NJEGIC, RYAN OLSON, MIKE PAK, ROBERTO PEVERATI,
     BUU PHAM, PIOTR PIECUCH, ANNA POMOGAEVA, DAVID POOLE,
     SPENCER PRUITT, OLIVIER QUINET, LUKE ROSKOP,
     KLAUS RUEDENBERG, ANDREW SAND, TOSAPORN SATTASATHUCHANA,
     NOZOMI SAWADA, MICHAEL W. SCHMIDT, PATRICK E. SCHNEIDER,
     JUNJI SEINO, PRACHI SHARMA, JUN SHEN, JIM SHOEMAKER,
     GEORGE SCHOENDORFF, YINAN SHU, DEJUN SI, JONATHAN SKONE,
     LYUDMILA SLIPCHENKO, TONY SMITH, JIE SONG, MARK SPACKMAN,
     CASPER STEINMANN, WALT STEVENS, PEIFENG SU, SHUJUN SU,
     CHET SWALINA, CHINAMI TAKASHIMA, TETSUYA TAKETSUGU,
     ZHEN TAO, NANDUN THELLAMUREGE, SEIKEN TOKURA,
     JACOPO TOMASI, TSUGUKI TOUMA, TAKAO TSUNEDA, HIROAKI UMEDA,
     JORGE LUIS GALVEZ VALLEJO, YALI WANG, SIMON WEBB,
     AARON WEST, THERESA L. WINDUS, MARTA WLOCH,
     PENG XU, KIYOSHI YAGI, SUSUMU YANAGISAWA, YANG YANG,
     SOOHAENG YOO, TAKESHI YOSHIKAWA, FEDERICO ZAHARIEV,
     TOBY ZENG

  WHO ARE SUPPORTED BY THEIR INSTITUTION/UNIVERSITY/COMPANY/GROUP
  (IN ALPHABETICAL ORDER):

     EP ANALYTICS,
     FACULTES UNIVERSITAIRES NOTRE-DAME DE LA PAIX,
     INSTITUTE FOR MOLECULAR SCIENCE, IOWA STATE UNIVERSITY,
     JACKSON STATE UNIVERSITY, JOHANNES KEPLER UNIVERSITY LINZ,
     KYUNGPOOK NATIONAL UNIVERSITY
     KYUSHU UNIVERSITY, MICHIGAN STATE UNIVERSITY,
     MIE UNIVERSITY, THE MOLECULAR SCIENCES SOFTWARE INSTITUTE,
     MOSCOW STATE UNIVERSITY,
     N. COPERNICUS UNIVERSITY, NAGOYA UNIVERSITY,
     NANJING UNIVERSITY, NAT. INST. OF ADVANCED INDUSTRIAL
     SCIENCE AND TECHNOLOGY, NATIONAL INST. OF STANDARDS AND
     TECHNOLOGY, NESMEYANOV INSTITUTE OF ORGANOELEMENT COMPOUNDS
     OF RUSSIAN ACADEMY OF SCIENCES, OSAKA PREFECTURE UNIVERSITY,
     PENNSYLVANIA STATE UNIVERSITY, TOKYO INSTITUTE OF TECHNOLOGY,
     UNIVERSITY OF AARHUS, UNIVERSITY OF ALBERTA,
     UNIVERSITY OF CALIFORNIA AT SANTA BARBARA,
     UNIVERSITY OF COPENHAGEN, UNIVERSITY OF IOWA,
     UNIVERSITY OF MEMPHIS, UNIVERSITY OF MINNESOTA,
     UNIVERSITY OF NEBRASKA, UNIVERSITY OF NEW ENGLAND,
     UNIVERSITY OF NOTRE DAME, UNIVERSITY OF PISA,
     UNIVERSITY OF SILESIA, UNIVERSITY OF TOKYO,
     UNIVERSITY OF ZURICH, WASEDA UNIVERSITY,
     YALE UNIVERSITY

  GAMESS SOFTWARE MANAGEMENT TEAM FOR THIS RELEASE:
     MARK S. GORDON (TEAM LEAD),
     BRETT BODE (SENIOR ADVISOR),
     GIUSEPPE BARCA,
     COLLEEN BERTONI,
     KRISTOPHER KEIPERT (ADVISOR),
     SAROM S. LEANG (DEVELOPMENT LEAD),
     BUU PHAM,
     JACKSON HAYES (WEBSITE ADMINISTRATOR),
     PENG XU


 PARALLEL VERSION RUNNING ON       64 PROCESSORS IN        1 NODES.

 EXECUTION OF GAMESS BEGUN 14:10:09 04-MAR-2024    

            ECHO OF THE FIRST FEW INPUT CARDS -
 INPUT CARD> $CONTRL SCFTYP=ROHF MULT=3 ICHARG=0 RUNTYP=OPTIMIZE                            
 INPUT CARD> DFTTYP=B3LYP ISPHER=1 MAXIT=200 NPRINT=-5 TDDFT=MRSF $END                      
 INPUT CARD> $BASIS GBASIS=N311 NGAUSS=6 NDFUNC=1 NPFUNC=1 DIFFSP=.F. DIFFS=.F. $END        
 INPUT CARD> $SYSTEM MWORDS=200 $END                                                        
 INPUT CARD> $SCF DIRSCF=.T. DIIS=.T. $END                                                  
 INPUT CARD> $TDDFT IROOT=2 NSTATE=5 $END                                                   
 INPUT CARD> $DATA                                                                          
 INPUT CARD> C22N2H16O5                                                                     
 INPUT CARD>C1                                                                              
 INPUT CARD>CARBON          6.0     -4.310034000        -0.328040000        -0.234465000    
 INPUT CARD>CARBON          6.0     -5.458850000        -1.118982000        -0.352646000    
 INPUT CARD>CARBON          6.0     -6.706949000        -0.573208000        -0.080613000    
 INPUT CARD>CARBON          6.0     -6.812888000         0.761268000         0.312163000    
 INPUT CARD>CARBON          6.0     -5.669271000         1.550558000         0.433088000    
 INPUT CARD>CARBON          6.0     -4.416863000         1.011830000         0.160942000    
 INPUT CARD>HYDROGEN        1.0     -5.358601000        -2.153463000        -0.656876000    
 INPUT CARD>HYDROGEN        1.0     -7.596100000        -1.186059000        -0.173561000    
 INPUT CARD>HYDROGEN        1.0     -7.787435000         1.186262000         0.525414000    
 INPUT CARD>HYDROGEN        1.0     -5.753538000         2.586337000         0.741114000    
 INPUT CARD>HYDROGEN        1.0     -3.530031000         1.623936000         0.258874000    
 INPUT CARD>CARBON          6.0     -3.011423000        -0.973923000        -0.534359000    
 INPUT CARD>OXYGEN          8.0     -2.821574000        -2.124134000        -0.813537000    
 INPUT CARD>OXYGEN          8.0     -1.996351000        -0.033857000        -0.453365000    
 INPUT CARD>OXYGEN          8.0     -0.723916000        -0.605477000        -0.746405000    
 INPUT CARD>CARBON          6.0     -0.159011000        -1.174823000         0.384134000    
 INPUT CARD>CARBON          6.0      1.221862000        -1.614802000         0.087362000    
 INPUT CARD>CARBON          6.0      1.841967000        -1.388168000        -1.147536000    
 INPUT CARD>CARBON          6.0      1.919889000        -2.261523000         1.113300000    
 INPUT CARD>CARBON          6.0      3.148386000        -1.817864000        -1.350094000    
 INPUT CARD>HYDROGEN        1.0      1.313178000        -0.873669000        -1.938224000    
 INPUT CARD>CARBON          6.0      3.226061000        -2.686048000         0.903817000    
 INPUT CARD>HYDROGEN        1.0      1.429742000        -2.420567000         2.065677000    
 INPUT CARD>CARBON          6.0      3.840017000        -2.468126000        -0.328755000    
 INPUT CARD>HYDROGEN        1.0      3.630092000        -1.637836000        -2.303859000    
 INPUT CARD>HYDROGEN        1.0      3.767042000        -3.181769000         1.701424000    
 INPUT CARD>HYDROGEN        1.0      4.862275000        -2.789782000        -0.488864000    
 INPUT CARD>OXYGEN          8.0     -0.743600000        -1.278906000         1.425982000    
 INPUT CARD>CARBON          6.0     -0.076440000         2.712010000        -0.172937000    
 INPUT CARD>CARBON          6.0      1.006965000         2.620387000        -1.026582000    
 INPUT CARD>CARBON          6.0      2.194575000         2.000821000        -0.605750000    
 INPUT CARD>CARBON          6.0      2.267760000         1.471385000         0.701400000    
 INPUT CARD>CARBON          6.0      1.169242000         1.564543000         1.563582000    
 INPUT CARD>CARBON          6.0      0.009962000         2.180561000         1.122590000    
 INPUT CARD>HYDROGEN        1.0     -0.994506000         3.182108000        -0.503946000    
 INPUT CARD>HYDROGEN        1.0      0.972088000         3.014682000        -2.035387000    
 INPUT CARD>HYDROGEN        1.0      1.229497000         1.141263000         2.559916000    
 INPUT CARD>HYDROGEN        1.0     -0.844685000         2.238690000         1.786353000    
 INPUT CARD>CARBON          6.0      4.543347000         0.730983000         0.259497000    
 INPUT CARD>CARBON          6.0      4.340388000         1.320252000        -1.077478000    
 INPUT CARD>HYDROGEN        1.0      5.182525000         1.238291000        -1.759954000    
    200000000 WORDS OF MEMORY AVAILABLE

 WARNING: LARGE MAXIT:      200

     BASIS OPTIONS
     -------------
     GBASIS=N311         IGAUSS=       6      POLAR=POPN311 
     NDFUNC=       1     NFFUNC=       0     DIFFSP=       F
     NPFUNC=       1      DIFFS=       F     BASNAM=        


     RUN TITLE
     ---------
  C22N2H16O5                                                                     

 THE POINT GROUP OF THE MOLECULE IS C1      
 THE ORDER OF THE PRINCIPAL AXIS IS     0

 ATOM      ATOMIC                      COORDINATES (BOHR)
           CHARGE         X                   Y                   Z
 CARBON      6.0    -8.1447832578       -0.6199057130       -0.4430746037
 CARBON      6.0   -10.3157307081       -2.1145693652       -0.6664043107
 CARBON      6.0   -12.6742958236       -1.0832060540       -0.1523364810
 CARBON      6.0   -12.8744915050        1.4385879232        0.5899025335
 CARBON      6.0   -10.7133687401        2.9301297481        0.8184176486
 CARBON      6.0    -8.3466607953        1.9120814462        0.3041362799
 HYDROGEN    1.0   -10.1262875675       -4.0694549947       -1.2413156479
 HYDROGEN    1.0   -14.3545475753       -2.2413265153       -0.3279827322
 HYDROGEN    1.0   -14.7161182972        2.2417101296        0.9928884901
 HYDROGEN    1.0   -10.8726102799        4.8874682419        1.4005023857
 HYDROGEN    1.0    -6.6707913182        3.0687940616        0.4892009253
 CARBON      6.0    -5.6907643031       -1.8404476031       -1.0097920891
 OXYGEN      8.0    -5.3320017141       -4.0140312212       -1.5373620109
 OXYGEN      8.0    -3.7725563653       -0.0639804528       -0.8567356224
 OXYGEN      8.0    -1.3680028781       -1.1441856219       -1.4105009259
 CARBON      6.0    -0.3004872190       -2.2200935541        0.7259080026
 CARBON      6.0     2.3089843748       -3.0515333044        0.1650902417
 CARBON      6.0     3.4808129084       -2.6232571449       -2.1685286010
 CARBON      6.0     3.6280641368       -4.2736587849        2.1038319421
 CARBON      6.0     5.9495868436       -3.4352648429       -2.5513077177
 HYDROGEN    1.0     2.4815465931       -1.6509950140       -3.6627122628
 CARBON      6.0     6.0963713097       -5.0758947099        1.7079664730
 HYDROGEN    1.0     2.7018206131       -4.5742083649        3.9035635091
 CARBON      6.0     7.2565799182       -4.6640818432       -0.6212568671
 HYDROGEN    1.0     6.8598791902       -3.0950612528       -4.3536622243
 HYDROGEN    1.0     7.1186771642       -6.0126715662        3.2152251489
 HYDROGEN    1.0     9.1883674270       -5.2719235455       -0.9238190053
 OXYGEN      8.0    -1.4052002445       -2.4167819041        2.6947152434
 CARBON      6.0    -0.1444506545        5.1249557760       -0.3268035431
 CARBON      6.0     1.9028879292        4.9518134118       -1.9399586839
 CARBON      6.0     4.1471454095        3.7810034405       -1.1447015171
 CARBON      6.0     4.2854450059        2.7805144724        1.3254538078
 CARBON      6.0     2.2095469933        2.9565575660        2.9547415393
 CARBON      6.0     0.0188254503        4.1206627895        2.1213874966
 HYDROGEN    1.0    -1.8793438331        6.0133121833       -0.9523198526
 HYDROGEN    1.0     1.8369799560        5.6969229201       -3.8463237090
 HYDROGEN    1.0     2.3234124327        2.1566743499        4.8375397916
 HYDROGEN    1.0    -1.5962231959        4.2305106715        3.3757176873
 CARBON      6.0     8.5856808971        1.3813575717        0.4903782246
 CARBON      6.0     8.2021440004        2.4949145147       -2.0361381778
 HYDROGEN    1.0     9.7935521745        2.3400306831       -3.3258308110
 NITROGEN    7.0     6.1709266691        3.6067952708       -2.7949652071
 OXYGEN      8.0    10.5398597691        0.3396461210        1.1666884789
 NITROGEN    7.0     6.5092462024        1.6215965468        2.0378257031
 HYDROGEN    1.0     6.6514405240        0.8521303602        3.7833844952

          INTERNUCLEAR DISTANCES (ANGS.)
          ------------------------------

                1 CARB       2 CARB       3 CARB       4 CARB       5 CARB  

   1 CARB    0.0000000    1.3997622 *  2.4143279 *  2.7838233 *  2.4129407 *
   2 CARB    1.3997622 *  0.0000000    1.3891085 *  2.4105456 *  2.7907165 *
   3 CARB    2.4143279 *  1.3891085 *  0.0000000    1.3951065 *  2.4188936 *
   4 CARB    2.7838233 *  2.4105456 *  1.3951065 *  0.0000000    1.3947980 *
   5 CARB    2.4129407 *  2.7907165 *  2.4188936 *  1.3947980 *  0.0000000  
   6 CARB    1.4010749 *  2.4269053 *  2.7955658 *  2.4138320 *  1.3902579 *
   7 HYDR    2.1471127 *  1.0829389 *  2.1557660 *  3.3984767    3.8735396  
   8 HYDR    3.3967831    2.1457885 *  1.0838889 *  2.1543981 *  3.4014358  
   9 HYDR    3.8681836    3.3922629    2.1518488 *  1.0843605 *  2.1512448 *
  10 HYDR    3.3954457    3.8746020    3.4010223    2.1533923 *  1.0838907 *
  11 HYDR    2.1591661 *  3.4085039    3.8775638    3.3947291    2.1475760 *
  12 CARB    1.4810442 *  2.4584468 *  3.7447791    4.2636397    3.7911890  
  13 OXYG    2.4034956 *  2.8597160 *  4.2471977    5.0520622    4.8131916  
  14 OXYG    2.3425605 *  3.6299504    4.7560043    4.9413850    4.0971345  
  15 OXYG    3.6330836    4.7789469    6.0200502    6.3296239    5.5223389  
  16 CARB    4.2814365    5.3510986    6.5919210    6.9302025    6.1476063  
  17 CARB    5.6886907    6.7135205    7.9986985    8.3817332    7.5912281  
  18 CARB    6.3090955    7.3488938    8.6536957    9.0364435    8.2190741  
  19 CARB    6.6608384    7.6092172    8.8711989    9.2758008    8.5199765  
  20 CARB    7.6871472    8.6929771   10.0144085   10.4231473    9.6060960  
  21 HYDR    5.9009337    6.9594971    8.2379265    8.5889586    7.7623831  
  22 CARB    7.9780082    8.9141502   10.2028370   10.6308297    9.8639418  
  23 HYDR    6.5279668    7.4158688    8.6153953    9.0077652    8.2964550  
  24 CARB    8.4268731    9.3962592   10.7187117   11.1500738   10.3516561  
  25 HYDR    8.3092453    9.3104945   10.6268844   11.0297372   10.2046503  
  26 HYDR    8.7824024    9.6742636   10.9400518   11.3759617   10.6323844  
  27 HYDR    9.5003234   10.4563736   11.7867219   12.2295148   11.4281236  
  28 OXYG    4.0473055    5.0420904    6.1910718    6.4991661    5.7666229  
  29 CARB    5.2123898    6.6090190    7.4003264    7.0299679    5.7442141  
  30 CARB    6.1311622    7.4995889    8.4022839    8.1485374    6.9171741  
  31 CARB    6.9189150    8.2687452    9.2810842    9.1385691    7.9449352  
  32 CARB    6.8833965    8.2171477    9.2378194    9.1166847    7.9419595  
  33 CARB    6.0693747    7.4030291    8.3251271    8.1194642    6.9313399  
  34 CARB    5.1765860    6.5552429    7.3585212    7.0158725    5.7555195  
  35 HYDR    4.8359575    6.2010188    6.8493514    6.3545314    5.0391880  
  36 HYDR    6.5052228    7.8278834    8.6983737    8.4376962    7.2349621  
  37 HYDR    6.3760348    7.6371271    8.5380899    8.3592312    7.2307620  
  38 HYDR    4.7623998    6.0942429    6.7645008    6.3226149    5.0578139  
  39 CARB    8.9301670   10.1902421   11.3307435   11.3563975   10.2469217  
  40 CARB    8.8463178   10.1242436   11.2526701   11.2534053   10.1256172  
  41 HYDR    9.7411080   10.9898186   12.1433647   12.1824116   11.0755777  
  42 NITR    7.9962857    9.3032108   10.3713612   10.3004376    9.1441131  
  43 OXYG    9.9370972   11.1547132   12.3272332   12.4077362   11.3314584  
  44 NITR    7.9538664    9.2318553   10.3172066   10.2864661    9.1628333  
  45 HYDR    8.1801643    9.4141038   10.4867860   10.4745591    9.3866813  

                6 CARB       7 HYDR       8 HYDR       9 HYDR      10 HYDR  

   1 CARB    1.4010749 *  2.1471127 *  3.3967831    3.8681836    3.3954457  
   2 CARB    2.4269053 *  1.0829389 *  2.1457885 *  3.3922629    3.8746020  
   3 CARB    2.7955658 *  2.1557660 *  1.0838889 *  2.1518488 *  3.4010223  
   4 CARB    2.4138320 *  3.3984767    2.1543981 *  1.0843605 *  2.1533923 *
   5 CARB    1.3902579 *  3.8735396    3.4014358    2.1512448 *  1.0838907 *
   6 CARB    0.0000000    3.4021723    3.8794531    3.3947050    2.1453139 *
   7 HYDR    3.4021723    0.0000000    2.4851289 *  4.2954403    4.9574243  
   8 HYDR    3.8794531    2.4851289 *  0.0000000    2.4805407 *  4.2968170  
   9 HYDR    3.3947050    4.2954403    2.4805407 *  0.0000000    2.4786031 *
  10 HYDR    2.1453139 *  4.9574243    4.2968170    2.4786031 *  0.0000000  
  11 HYDR    1.0820053 *  4.2954638    4.9614503    4.2881337    2.4703754 *
  12 CARB    2.5302016 *  2.6297471 *  4.6037420    5.3478789    4.6713464  
  13 OXYG    3.6508665    2.5420285 *  4.9077136    6.1164767    5.7621081  
  14 OXYG    2.7073442 *  3.9798080    5.7239015    5.9986126    4.7337776  
  15 OXYG    4.1324107    4.8871854    6.9204146    7.3973747    6.1398279  
  16 CARB    4.7917189    5.3923255    7.4579785    7.9867099    6.7507401  
  17 CARB    6.2209187    6.6442862    8.8322339    9.4448548    8.1690370  
  18 CARB    6.8297187    7.2577271    9.4903416   10.1070191    8.7781197  
  19 CARB    7.1955717    7.4914362    9.6626436   10.3181864    9.0841483  
  20 CARB    8.2172617    8.5417800   10.8271597   11.4949765   10.1496004  
  21 HYDR    6.3870944    6.9132019    9.0877312    9.6505951    8.3119774  
  22 CARB    8.5229368    8.7416149   10.9786101   11.6805423   10.4143033  
  23 HYDR    7.0421697    7.3188278    9.3810458   10.0168846    8.8556799  
  24 CARB    8.9736260    9.2098452   11.5088033   12.2180930   10.8962614  
  25 HYDR    8.8232340    9.1528698   11.4354562   12.0971169   10.7316359  
  26 HYDR    9.3239293    9.4813687   11.6884312   12.4084098   11.1729444  
  27 HYDR   10.0487265   10.2420426   12.5651284   13.2986033   11.9629004  
  28 OXYG    4.5100619    5.1382275    7.0373230    7.5168935    6.3646387  
  29 CARB    4.6734740    7.1977948    8.4699604    7.8914539    5.7515845  
  30 CARB    5.7806210    7.9653473    9.4461317    9.0447154    6.9878687  
  31 CARB    6.7288210    8.6203919   10.3053534   10.0788671    8.0826587  
  32 CARB    6.7221626    8.5525329   10.2529654   10.0607759    8.0985132  
  33 CARB    5.7859709    7.8336924    9.3495827    9.0245749    7.0459492  
  34 CARB    4.6784056    7.1254285    8.4182134    7.8831878    5.7903463  
  35 HYDR    4.1066665    6.8947103    7.9228202    7.1544998    4.9551491  
  36 HYDR    6.1543538    8.2878006    9.7224722    9.3075273    7.2887916  
  37 HYDR    6.1362212    8.0377861    9.5278270    9.2437160    7.3592838  
  38 HYDR    4.1118855    6.7554285    7.8199599    7.1343780    5.0309264  
  39 CARB    8.9651521   10.3541461   12.2975104   12.3420491   10.4737832  
  40 CARB    8.8497601   10.3108675   12.2302251   12.2340225   10.3342920  
  41 HYDR    9.7923121   11.1281676   13.1029528   13.1698700   11.2991169  
  42 NITR    7.9064966    9.5682774   11.3690825   11.2564340    9.3129817  
  43 OXYG   10.0392778   11.2545477   13.2677620   13.4030525   11.5844047  
  44 NITR    7.9162517    9.4644622   11.2978675   11.2503697    9.3651073  
  45 HYDR    8.1666934    9.6269803   11.4444824   11.4269253    9.5992000  

               11 HYDR      12 CARB      13 OXYG      14 OXYG      15 OXYG  

   1 CARB    2.1591661 *  1.4810442 *  2.4034956 *  2.3425605 *  3.6330836  
   2 CARB    3.4085039    2.4584468 *  2.8597160 *  3.6299504    4.7789469  
   3 CARB    3.8775638    3.7447791    4.2471977    4.7560043    6.0200502  
   4 CARB    3.3947291    4.2636397    5.0520622    4.9413850    6.3296239  
   5 CARB    2.1475760 *  3.7911890    4.8131916    4.0971345    5.5223389  
   6 CARB    1.0820053 *  2.5302016 *  3.6508665    2.7073442 *  4.1324107  
   7 HYDR    4.2954638    2.6297471 *  2.5420285 *  3.9798080    4.8871854  
   8 HYDR    4.9614503    4.6037420    4.9077136    5.7239015    6.9204146  
   9 HYDR    4.2881337    5.3478789    6.1164767    5.9986126    7.3973747  
  10 HYDR    2.4703754 *  4.6713464    5.7621081    4.7337776    6.1398279  
  11 HYDR    0.0000000    2.7653290 *  3.9623232    2.3680660 *  3.7222506  
  12 CARB    2.7653290 *  0.0000000    1.1987361 *  1.3858771 *  2.3266724 *
  13 OXYG    3.9623232    1.1987361 *  0.0000000    2.2759558 *  2.5905588 *
  14 OXYG    2.3680660 *  1.3858771 *  2.2759558 *  0.0000000    1.4253816 *
  15 OXYG    3.7222506    2.3266724 *  2.5905588 *  1.4253816 *  0.0000000  
  16 CARB    4.3832086    3.0033722    3.0699917    2.3192728 *  1.3861425 *
  17 CARB    5.7532015    4.3264263    4.1737768    3.6261092    2.3451986 *
  18 CARB    6.3173667    4.9094785    4.7330557    4.1290092    2.7124282 *
  19 CARB    6.7474783    5.3563544    5.1198680    4.7701018    3.6318998  
  20 CARB    7.6834900    6.2706385    6.0018428    5.5186160    4.1023220  
  21 HYDR    5.8755377    4.5478634    4.4637157    3.7233147    2.3753129 *
  22 CARB    8.0396948    6.6261549    6.3118097    6.0124577    4.7596561  
  23 HYDR    6.6499541    5.3457378    5.1430957    4.8764814    3.9800251  
  24 CARB    8.4503187    7.0154933    6.6880594    6.3249019    4.9470574  
  25 HYDR    8.2749090    6.9051888    6.6393930    6.1362804    4.7380179  
  26 HYDR    8.8556776    7.4713384    7.1311627    6.9115240    5.7269408  
  27 HYDR    9.5116149    8.0805033    7.7194582    7.3916935    6.0035861  
  28 OXYG    4.1896098    3.0131334    3.1698315    2.5790458 *  2.2744580 *
  29 CARB    3.6465952    4.7255532    5.5977154    3.3622141    3.4283831  
  30 CARB    4.8197141    5.4137593    6.1002933    4.0488882    3.6716000  
  31 CARB    5.8017869    5.9963834    6.4977057    4.6612226    3.9153752  
  32 CARB    5.8166555    5.9478067    6.4128084    4.6671060    3.9191352  
  33 CARB    4.8773925    5.3219476    5.9315803    4.0796981    3.6917576  
  34 CARB    3.6861073    4.6717252    5.5042332    3.3782500    3.4341996  
  35 HYDR    3.0722437    4.6196832    5.6205185    3.3687806    3.8049711  
  36 HYDR    5.2408858    5.8335594    6.5032468    4.5396050    4.2004113  
  37 HYDR    5.3085661    5.6598544    6.2011434    4.5680263    4.2188484  
  38 HYDR    3.1499520    4.5167843    5.4499313    3.3922177    3.8103457  
  39 CARB    8.1226103    7.7853363    7.9715216    6.6227489    5.5264838  
  40 CARB    7.9888395    7.7205791    7.9515508    6.5097918    5.4281872  
  41 HYDR    8.9517049    8.5753576    8.7331099    7.4068749    6.2699926  
  42 NITR    7.0200286    6.9714762    7.3320353    5.7019722    4.7721115  
  43 OXYG    9.2282466    8.7422105    8.8260417    7.6521009    6.4949012  
  44 NITR    7.0641894    6.9019398    7.1928683    5.7223398    4.7799547  
  45 HYDR    7.3562700    7.1498591    7.4007810    6.0573966    5.1651927  

               16 CARB      17 CARB      18 CARB      19 CARB      20 CARB  

   1 CARB    4.2814365    5.6886907    6.3090955    6.6608384    7.6871472  
   2 CARB    5.3510986    6.7135205    7.3488938    7.6092172    8.6929771  
   3 CARB    6.5919210    7.9986985    8.6536957    8.8711989   10.0144085  
   4 CARB    6.9302025    8.3817332    9.0364435    9.2758008   10.4231473  
   5 CARB    6.1476063    7.5912281    8.2190741    8.5199765    9.6060960  
   6 CARB    4.7917189    6.2209187    6.8297187    7.1955717    8.2172617  
   7 HYDR    5.3923255    6.6442862    7.2577271    7.4914362    8.5417800  
   8 HYDR    7.4579785    8.8322339    9.4903416    9.6626436   10.8271597  
   9 HYDR    7.9867099    9.4448548   10.1070191   10.3181864   11.4949765  
  10 HYDR    6.7507401    8.1690370    8.7781197    9.0841483   10.1496004  
  11 HYDR    4.3832086    5.7532015    6.3173667    6.7474783    7.6834900  
  12 CARB    3.0033722    4.3264263    4.9094785    5.3563544    6.2706385  
  13 OXYG    3.0699917    4.1737768    4.7330557    5.1198680    6.0018428  
  14 OXYG    2.3192728 *  3.6261092    4.1290092    4.7701018    5.5186160  
  15 OXYG    1.3861425 *  2.3451986 *  2.7124282 *  3.6318998    4.1023220  
  16 CARB    0.0000000    1.4793463 *  2.5289211 *  2.4565067 *  3.7894490  
  17 CARB    1.4793463 *  0.0000000    1.4003093 *  1.3992993 *  2.4122621 *
  18 CARB    2.5289211 *  1.4003093 *  0.0000000    2.4249124 *  1.3901075 *
  19 CARB    2.4565067 *  1.3992993 *  2.4249124 *  0.0000000    2.7882518 *
  20 CARB    3.7894490    2.4122621 *  1.3901075 *  2.7882518 *  0.0000000  
  21 HYDR    2.7661130 *  2.1588458 *  1.0814410 *  3.4067632    2.1460171 *
  22 CARB    3.7433386    2.4147423 *  2.7943260 *  1.3893127 *  2.4165868 *
  23 HYDR    2.6274705 *  2.1462063 *  3.4000757    1.0828486 *  3.8709792  
  24 CARB    4.2629882    2.7849687 *  2.4143147 *  2.4102072 *  1.3943914 *
  25 HYDR    4.6687246    3.3938238    2.1440168 *  3.8717897    1.0835675 *
  26 HYDR    4.6018450    3.3968401    3.8780783    2.1458604 *  3.3992255  
  27 HYDR    5.3463568    3.8684908    3.3942055    3.3916990    2.1502924 *
  28 OXYG    1.1991767 *  2.4016183 *  3.6496698    2.8561302 *  4.8108865  
  29 CARB    3.9274186    4.5248918    4.6305063    5.5114214    5.6837452  
  30 CARB    4.2134592    4.3845043    4.0963852    5.4079174    4.9384629  
  31 CARB    4.0747947    3.8077952    3.4500885    4.6041461    4.0057657  
  32 CARB    3.6044822    3.3159456    3.4317499    3.7716413    3.9753351  
  33 CARB    3.2648859    3.5057423    4.0646306    3.9249211    4.8833591  
  34 CARB    3.4398359    4.1164522    4.6092886    4.8352888    5.6525458  
  35 HYDR    4.5243326    5.3171682    5.4173065    6.3829696    6.5482242  
  36 HYDR    4.9684423    5.0990756    4.5749379    6.2169845    5.3440996  
  37 HYDR    3.4678864    3.7026309    4.5297175    3.7614215    5.2656192  
  38 HYDR    3.7534568    4.6911179    5.3832985    5.3242640    6.4990419  
  39 CARB    5.0754115    4.0699632    3.7105251    4.0702093    3.3216442  
  40 CARB    5.3484858    4.4380850    3.6854517    4.8463838    3.3679312  
  41 HYDR    6.2411729    5.2191539    4.2933286    5.5811361    3.6940209  
  42 NITR    4.9705599    4.3640239    3.6062833    5.0912770    3.7305672  
  43 OXYG    5.8988354    4.7405128    4.4189504    4.4253186    3.7096818  
  44 NITR    4.1952837    3.4695421    3.5452351    3.4724514    3.6257413  
  45 HYDR    4.3352512    3.6350883    4.0146550    3.2721566    4.0647800  

               21 HYDR      22 CARB      23 HYDR      24 CARB      25 HYDR  

   1 CARB    5.9009337    7.9780082    6.5279668    8.4268731    8.3092453  
   2 CARB    6.9594971    8.9141502    7.4158688    9.3962592    9.3104945  
   3 CARB    8.2379265   10.2028370    8.6153953   10.7187117   10.6268844  
   4 CARB    8.5889586   10.6308297    9.0077652   11.1500738   11.0297372  
   5 CARB    7.7623831    9.8639418    8.2964550   10.3516561   10.2046503  
   6 CARB    6.3870944    8.5229368    7.0421697    8.9736260    8.8232340  
   7 HYDR    6.9132019    8.7416149    7.3188278    9.2098452    9.1528698  
   8 HYDR    9.0877312   10.9786101    9.3810458   11.5088033   11.4354562  
   9 HYDR    9.6505951   11.6805423   10.0168846   12.2180930   12.0971169  
  10 HYDR    8.3119774   10.4143033    8.8556799   10.8962614   10.7316359  
  11 HYDR    5.8755377    8.0396948    6.6499541    8.4503187    8.2749090  
  12 CARB    4.5478634    6.6261549    5.3457378    7.0154933    6.9051888  
  13 OXYG    4.4637157    6.3118097    5.1430957    6.6880594    6.6393930  
  14 OXYG    3.7233147    6.0124577    4.8764814    6.3249019    6.1362804  
  15 OXYG    2.3753129 *  4.7596561    3.9800251    4.9470574    4.7380179  
  16 CARB    2.7661130 *  3.7433386    2.6274705 *  4.2629882    4.6687246  
  17 CARB    2.1588458 *  2.4147423 *  2.1462063 *  2.7849687 *  3.3938238  
  18 CARB    1.0814410 *  2.7943260 *  3.4000757    2.4143147 *  2.1440168 *
  19 CARB    3.4067632    1.3893127 *  1.0828486 *  2.4102072 *  3.8717897  
  20 CARB    2.1460171 *  2.4165868 *  3.8709792    1.3943914 *  1.0835675 *
  21 HYDR    0.0000000    3.8756981    4.2939147    3.3937588    2.4669274 *
  22 CARB    3.8756981    0.0000000    2.1557274 *  1.3941541 *  3.3987019  
  23 HYDR    4.2939147    2.1557274 *  0.0000000    3.3977922    4.9544982  
  24 CARB    3.3937588    1.3941541 *  3.3977922    0.0000000    2.1527856 *
  25 HYDR    2.4669274 *  3.3987019    4.9544982    2.1527856 *  0.0000000  
  26 HYDR    4.9594165    1.0837789 *  2.4849708 *  2.1531926 *  4.2947382  
  27 HYDR    4.2858165    2.1511665 *  4.2946807    1.0835631 *  2.4777937 *
  28 OXYG    3.9638914    4.2439266    2.5369302 *  5.0500387    5.7593165  
  29 CARB    4.2313556    6.4191076    5.7985622    6.4959005    6.0992105  
  30 CARB    3.6239874    6.0670487    5.9289142    5.8656722    5.1618500  
  31 CARB    3.2886229    5.0308545    5.2220842    4.7702927    4.2642828  
  32 CARB    3.6576112    4.2712484    4.2084221    4.3649695    4.5337386  
  33 CARB    4.2694544    4.7679469    4.0250542    5.1938808    5.5917899  
  34 CARB    4.5161128    5.8373828    4.9066860    6.1956448    6.2790166  
  35 HYDR    4.8817913    7.3641182    6.6234363    7.4383095    6.9179805  
  36 HYDR    3.9044918    6.7983555    6.8242292    6.4186286    5.3649777  
  37 HYDR    4.9295250    4.6235529    3.6015279    5.3091359    6.0944692  
  38 HYDR    5.3118382    6.4500300    5.1922746    6.9695216    7.1958959  
  39 CARB    4.2236095    3.7183991    4.7842544    3.3279140    3.6077877  
  40 CARB    3.8364272    4.6062668    5.6872674    3.8939395    3.2800633  
  41 HYDR    4.4118025    5.1306787    6.4889194    4.1938270    3.3133046  
  42 NITR    3.4298226    5.1759664    5.8887182    4.5617123    3.6593314  
  43 OXYG    5.0818149    3.7180362    5.1051567    3.3053026    3.9534090  
  44 NITR    4.0794161    3.5551757    3.9729007    3.6332163    4.2075722  
  45 HYDR    4.7063470    3.3366270    3.5521589    3.7491622    4.7870890  

               26 HYDR      27 HYDR      28 OXYG      29 CARB      30 CARB  

   1 CARB    8.7824024    9.5003234    4.0473055    5.2123898    6.1311622  
   2 CARB    9.6742636   10.4563736    5.0420904    6.6090190    7.4995889  
   3 CARB   10.9400518   11.7867219    6.1910718    7.4003264    8.4022839  
   4 CARB   11.3759617   12.2295148    6.4991661    7.0299679    8.1485374  
   5 CARB   10.6323844   11.4281236    5.7666229    5.7442141    6.9171741  
   6 CARB    9.3239293   10.0487265    4.5100619    4.6734740    5.7806210  
   7 HYDR    9.4813687   10.2420426    5.1382275    7.1977948    7.9653473  
   8 HYDR   11.6884312   12.5651284    7.0373230    8.4699604    9.4461317  
   9 HYDR   12.4084098   13.2986033    7.5168935    7.8914539    9.0447154  
  10 HYDR   11.1729444   11.9629004    6.3646387    5.7515845    6.9878687  
  11 HYDR    8.8556776    9.5116149    4.1896098    3.6465952    4.8197141  
  12 CARB    7.4713384    8.0805033    3.0131334    4.7255532    5.4137593  
  13 OXYG    7.1311627    7.7194582    3.1698315    5.5977154    6.1002933  
  14 OXYG    6.9115240    7.3916935    2.5790458 *  3.3622141    4.0488882  
  15 OXYG    5.7269408    6.0035861    2.2744580 *  3.4283831    3.6716000  
  16 CARB    4.6018450    5.3463568    1.1991767 *  3.9274186    4.2134592  
  17 CARB    3.3968401    3.8684908    2.4016183 *  4.5248918    4.3845043  
  18 CARB    3.8780783    3.3942055    3.6496698    4.6305063    4.0963852  
  19 CARB    2.1458604 *  3.3916990    2.8561302 *  5.5114214    5.4079174  
  20 CARB    3.3992255    2.1502924 *  4.8108865    5.6837452    4.9384629  
  21 HYDR    4.9594165    4.2858165    3.9638914    4.2313556    3.6239874  
  22 CARB    1.0837789 *  2.1511665 *  4.2439266    6.4191076    6.0670487  
  23 HYDR    2.4849708 *  4.2946807    2.5369302 *  5.7985622    5.9289142  
  24 CARB    2.1531926 *  1.0835631 *  5.0500387    6.4959005    5.8656722  
  25 HYDR    4.2947382    2.4777937 *  5.7593165    6.0992105    5.1618500  
  26 HYDR    0.0000000    2.4800304 *  4.9033302    7.2816354    6.9803335  
  27 HYDR    2.4800304 *  0.0000000    6.1135273    7.4000291    6.6650195  
  28 OXYG    4.9033302    6.1135273    0.0000000    4.3507534    4.9278833  
  29 CARB    7.2816354    7.4000291    4.3507534    0.0000000    1.3823426 *
  30 CARB    6.9803335    6.6650195    4.9278833    1.3823426 *  0.0000000  
  31 CARB    5.8868449    5.4845385    4.8494759    2.4188067 *  1.4040581 *
  32 CARB    4.9899636    5.1289161    4.1421503    2.7926491 *  2.4281127 *
  33 CARB    5.4124895    6.0672212    3.4297377    2.4256757 *  2.8018012 *
  34 CARB    6.5730725    7.1306406    3.5535636    1.4029589 *  2.4096477 *
  35 HYDR    8.2483287    8.3645431    4.8670547    1.0832379 *  2.1434937 *
  36 HYDR    7.7570310    7.1566117    5.7757734    2.1586434 *  1.0836847 *
  37 HYDR    5.0857398    6.1599716    3.3220680    3.4119207    3.8859100  
  38 HYDR    7.1173460    7.9392402    3.5374521    2.1570928 *  3.3892335  
  39 CARB    4.2416307    3.6135226    5.7751320    5.0451857    4.2106822  
  40 CARB    5.3215801    4.1846400    6.2345704    4.7184271    3.5783586  
  41 HYDR    5.7897893    4.2359889    7.1836917    5.6874584    4.4590722  
  42 NITR    6.0232079    5.0601572    5.8883370    3.6769490    2.4108809 *
  43 OXYG    3.9689328    3.2485823    6.5373680    6.2452825    5.4358798  
  44 NITR    4.1003461    4.2158409    4.7146832    4.1713361    3.6712718  
  45 HYDR    3.6534936    4.3022403    4.6368867    4.7724284    4.4937341  

               31 CARB      32 CARB      33 CARB      34 CARB      35 HYDR  

   1 CARB    6.9189150    6.8833965    6.0693747    5.1765860    4.8359575  
   2 CARB    8.2687452    8.2171477    7.4030291    6.5552429    6.2010188  
   3 CARB    9.2810842    9.2378194    8.3251271    7.3585212    6.8493514  
   4 CARB    9.1385691    9.1166847    8.1194642    7.0158725    6.3545314  
   5 CARB    7.9449352    7.9419595    6.9313399    5.7555195    5.0391880  
   6 CARB    6.7288210    6.7221626    5.7859709    4.6784056    4.1066665  
   7 HYDR    8.6203919    8.5525329    7.8336924    7.1254285    6.8947103  
   8 HYDR   10.3053534   10.2529654    9.3495827    8.4182134    7.9228202  
   9 HYDR   10.0788671   10.0607759    9.0245749    7.8831878    7.1544998  
  10 HYDR    8.0826587    8.0985132    7.0459492    5.7903463    4.9551491  
  11 HYDR    5.8017869    5.8166555    4.8773925    3.6861073    3.0722437  
  12 CARB    5.9963834    5.9478067    5.3219476    4.6717252    4.6196832  
  13 OXYG    6.4977057    6.4128084    5.9315803    5.5042332    5.6205185  
  14 OXYG    4.6612226    4.6671060    4.0796981    3.3782500    3.3687806  
  15 OXYG    3.9153752    3.9191352    3.6917576    3.4341996    3.8049711  
  16 CARB    4.0747947    3.6044822    3.2648859    3.4398359    4.5243326  
  17 CARB    3.8077952    3.3159456    3.5057423    4.1164522    5.3171682  
  18 CARB    3.4500885    3.4317499    4.0646306    4.6092886    5.4173065  
  19 CARB    4.6041461    3.7716413    3.9249211    4.8352888    6.3829696  
  20 CARB    4.0057657    3.9753351    4.8833591    5.6525458    6.5482242  
  21 HYDR    3.2886229    3.6576112    4.2694544    4.5161128    4.8817913  
  22 CARB    5.0308545    4.2712484    4.7679469    5.8373828    7.3641182  
  23 HYDR    5.2220842    4.2084221    4.0250542    4.9066860    6.6234363  
  24 CARB    4.7702927    4.3649695    5.1938808    6.1956448    7.4383095  
  25 HYDR    4.2642828    4.5337386    5.5917899    6.2790166    6.9179805  
  26 HYDR    5.8868449    4.9899636    5.4124895    6.5730725    8.2483287  
  27 HYDR    5.4845385    5.1289161    6.0672212    7.1306406    8.3645431  
  28 OXYG    4.8494759    4.1421503    3.4297377    3.5535636    4.8670547  
  29 CARB    2.4188067 *  2.7926491 *  2.4256757 *  1.4029589 *  1.0832379 *
  30 CARB    1.4040581 *  2.4281127 *  2.8018012 *  2.4096477 *  2.1434937 *
  31 CARB    0.0000000    1.4121967 *  2.4387799 *  2.7914153 *  3.4023581  
  32 CARB    1.4121967 *  0.0000000    1.3995635 *  2.4037436 *  3.8757982  
  33 CARB    2.4387799 *  1.3995635 *  0.0000000    1.3848763 *  3.4019103  
  34 CARB    2.7914153 *  2.4037436 *  1.3848763 *  0.0000000    2.1581640 *
  35 HYDR    3.4023581    3.8757982    3.4019103    2.1581640 *  0.0000000  
  36 HYDR    2.1368787 *  3.3986078    3.8851449    3.4050350    2.4981663 *
  37 HYDR    3.4193065    2.1543102 *  1.0841947 *  2.1525129 *  4.3009869  
  38 HYDR    3.8750277    3.3842568    2.1354164 *  1.0836890 *  2.4815224 *
  39 CARB    2.8067545 *  2.4334686 *  3.7121482    4.8371257    6.1039884  
  40 CARB    2.3000467 *  2.7355137 *  4.1341315    4.9328511    5.6794842  
  41 HYDR    3.2926409    3.8221004    5.2209934    5.9960271    6.5963393  
  42 NITR    1.3849297 *  2.4374133 *  3.7108294    4.1762423    4.5519555  
  43 OXYG    4.0319091    3.5538005    4.7164945    5.9376352    7.3117916  
  44 NITR    2.3884037 *  1.3795049 *  2.4313532 *  3.6806504    5.2545084  
  45 HYDR    3.3104604    2.0738093 *  2.6377074 *  4.0104905    5.8410952  

               36 HYDR      37 HYDR      38 HYDR      39 CARB      40 CARB  

   1 CARB    6.5052228    6.3760348    4.7623998    8.9301670    8.8463178  
   2 CARB    7.8278834    7.6371271    6.0942429   10.1902421   10.1242436  
   3 CARB    8.6983737    8.5380899    6.7645008   11.3307435   11.2526701  
   4 CARB    8.4376962    8.3592312    6.3226149   11.3563975   11.2534053  
   5 CARB    7.2349621    7.2307620    5.0578139   10.2469217   10.1256172  
   6 CARB    6.1543538    6.1362212    4.1118855    8.9651521    8.8497601  
   7 HYDR    8.2878006    8.0377861    6.7554285   10.3541461   10.3108675  
   8 HYDR    9.7224722    9.5278270    7.8199599   12.2975104   12.2302251  
   9 HYDR    9.3075273    9.2437160    7.1343780   12.3420491   12.2340225  
  10 HYDR    7.2887916    7.3592838    5.0309264   10.4737832   10.3342920  
  11 HYDR    5.2408858    5.3085661    3.1499520    8.1226103    7.9888395  
  12 CARB    5.8335594    5.6598544    4.5167843    7.7853363    7.7205791  
  13 OXYG    6.5032468    6.2011434    5.4499313    7.9715216    7.9515508  
  14 OXYG    4.5396050    4.5680263    3.3922177    6.6227489    6.5097918  
  15 OXYG    4.2004113    4.2188484    3.8103457    5.5264838    5.4281872  
  16 CARB    4.9684423    3.4678864    3.7534568    5.0754115    5.3484858  
  17 CARB    5.0990756    3.7026309    4.6911179    4.0699632    4.4380850  
  18 CARB    4.5749379    4.5297175    5.3832985    3.7105251    3.6854517  
  19 CARB    6.2169845    3.7614215    5.3242640    4.0702093    4.8463838  
  20 CARB    5.3440996    5.2656192    6.4990419    3.3216442    3.3679312  
  21 HYDR    3.9044918    4.9295250    5.3118382    4.2236095    3.8364272  
  22 CARB    6.7983555    4.6235529    6.4500300    3.7183991    4.6062668  
  23 HYDR    6.8242292    3.6015279    5.1922746    4.7842544    5.6872674  
  24 CARB    6.4186286    5.3091359    6.9695216    3.3279140    3.8939395  
  25 HYDR    5.3649777    6.0944692    7.1958959    3.6077877    3.2800633  
  26 HYDR    7.7570310    5.0857398    7.1173460    4.2416307    5.3215801  
  27 HYDR    7.1566117    6.1599716    7.9392402    3.6135226    4.1846400  
  28 OXYG    5.7757734    3.3220680    3.5374521    5.7751320    6.2345704  
  29 CARB    2.1586434 *  3.4119207    2.1570928 *  5.0451857    4.7184271  
  30 CARB    1.0836847 *  3.8859100    3.3892335    4.2106822    3.5783586  
  31 CARB    2.1368787 *  3.4193065    3.8750277    2.8067545 *  2.3000467 *
  32 CARB    3.3986078    2.1543102 *  3.3842568    2.4334686 *  2.7355137 *
  33 CARB    3.8851449    1.0841947 *  2.1354164 *  3.7121482    4.1341315  
  34 CARB    3.4050350    2.1525129 *  1.0836890 *  4.8371257    4.9328511  
  35 HYDR    2.4981663 *  4.3009869    2.4815224 *  6.1039884    5.6794842  
  36 HYDR    0.0000000    4.9691818    4.3021535    4.8203386    3.8902606  
  37 HYDR    4.9691818    0.0000000    2.4708251 *  4.0548562    4.7896049  
  38 HYDR    4.3021535    2.4708251 *  0.0000000    5.7995999    5.9941670  
  39 CARB    4.8203386    4.0548562    5.7995999    0.0000000    1.4751042 *
  40 CARB    3.8902606    4.7896049    5.9941670    1.4751042 *  0.0000000  
  41 HYDR    4.5781228    5.8563744    7.0643012    2.1780937 *  1.0870537 *
  42 NITR    2.6062762 *  4.5877363    5.2597920    2.4580891 *  1.2894934 *
  43 OXYG    6.0235813    4.8582607    6.8446811    1.2252909 *  2.3882371 *
  44 NITR    4.5231987    2.6798485 *  4.5612200    1.3762566 *  2.3798725 *
  45 HYDR    5.4189273    2.4562551 *  4.7213645    2.0402688 *  3.3034508  

               41 HYDR      42 NITR      43 OXYG      44 NITR      45 HYDR  

   1 CARB    9.7411080    7.9962857    9.9370972    7.9538664    8.1801643  
   2 CARB   10.9898186    9.3032108   11.1547132    9.2318553    9.4141038  
   3 CARB   12.1433647   10.3713612   12.3272332   10.3172066   10.4867860  
   4 CARB   12.1824116   10.3004376   12.4077362   10.2864661   10.4745591  
   5 CARB   11.0755777    9.1441131   11.3314584    9.1628333    9.3866813  
   6 CARB    9.7923121    7.9064966   10.0392778    7.9162517    8.1666934  
   7 HYDR   11.1281676    9.5682774   11.2545477    9.4644622    9.6269803  
   8 HYDR   13.1029528   11.3690825   13.2677620   11.2978675   11.4444824  
   9 HYDR   13.1698700   11.2564340   13.4030525   11.2503697   11.4269253  
  10 HYDR   11.2991169    9.3129817   11.5844047    9.3651073    9.5992000  
  11 HYDR    8.9517049    7.0200286    9.2282466    7.0641894    7.3562700  
  12 CARB    8.5753576    6.9714762    8.7422105    6.9019398    7.1498591  
  13 OXYG    8.7331099    7.3320353    8.8260417    7.1928683    7.4007810  
  14 OXYG    7.4068749    5.7019722    7.6521009    5.7223398    6.0573966  
  15 OXYG    6.2699926    4.7721115    6.4949012    4.7799547    5.1651927  
  16 CARB    6.2411729    4.9705599    5.8988354    4.1952837    4.3352512  
  17 CARB    5.2191539    4.3640239    4.7405128    3.4695421    3.6350883  
  18 CARB    4.2933286    3.6062833    4.4189504    3.5452351    4.0146550  
  19 CARB    5.5811361    5.0912770    4.4253186    3.4724514    3.2721566  
  20 CARB    3.6940209    3.7305672    3.7096818    3.6257413    4.0647800  
  21 HYDR    4.4118025    3.4298226    5.0818149    4.0794161    4.7063470  
  22 CARB    5.1306787    5.1759664    3.7180362    3.5551757    3.3366270  
  23 HYDR    6.4889194    5.8887182    5.1051567    3.9729007    3.5521589  
  24 CARB    4.1938270    4.5617123    3.3053026    3.6332163    3.7491622  
  25 HYDR    3.3133046    3.6593314    3.9534090    4.2075722    4.7870890  
  26 HYDR    5.7897893    6.0232079    3.9689328    4.1003461    3.6534936  
  27 HYDR    4.2359889    5.0601572    3.2485823    4.2158409    4.3022403  
  28 OXYG    7.1836917    5.8883370    6.5373680    4.7146832    4.6368867  
  29 CARB    5.6874584    3.6769490    6.2452825    4.1713361    4.7724284  
  30 CARB    4.4590722    2.4108809 *  5.4358798    3.6712718    4.4937341  
  31 CARB    3.2926409    1.3849297 *  4.0319091    2.3884037 *  3.3104604  
  32 CARB    3.8221004    2.4374133 *  3.5538005    1.3795049 *  2.0738093 *
  33 CARB    5.2209934    3.7108294    4.7164945    2.4313532 *  2.6377074 *
  34 CARB    5.9960271    4.1762423    5.9376352    3.6806504    4.0104905  
  35 HYDR    6.5963393    4.5519555    7.3117916    5.2545084    5.8410952  
  36 HYDR    4.5781228    2.6062762 *  6.0235813    4.5231987    5.4189273  
  37 HYDR    5.8563744    4.5877363    4.8582607    2.6798485 *  2.4562551 *
  38 HYDR    7.0643012    5.2597920    6.8446811    4.5612200    4.7213645  
  39 CARB    2.1780937 *  2.4580891 *  1.2252909 *  1.3762566 *  2.0402688 *
  40 CARB    1.0870537 *  1.2894934 *  2.3882371 *  2.3798725 *  3.3034508  
  41 HYDR    0.0000000    2.0501727 *  2.6321578 *  3.3498059    4.1877837  
  42 NITR    2.0501727 *  0.0000000    3.5677906    2.7705521 *  3.7825535  
  43 OXYG    2.6321578 *  3.5677906    0.0000000    2.2851711 *  2.4949763 *
  44 NITR    3.3498059    2.7705521 *  2.2851711 *  0.0000000    1.0122751 *
  45 HYDR    4.1877837    3.7825535    2.4949763 *  1.0122751 *  0.0000000  

  * ... LESS THAN  3.000


     ATOMIC BASIS SET
     ----------------
 THE CONTRACTED PRIMITIVE FUNCTIONS HAVE BEEN UNNORMALIZED
 THE CONTRACTED BASIS FUNCTIONS ARE NOW NORMALIZED TO UNITY

  SHELL TYPE  PRIMITIVE        EXPONENT          CONTRACTION COEFFICIENT(S)

 CARBON    

      1   S       1          4563.2400000    0.001966650249
      1   S       2           682.0240000    0.015230601932
      1   S       3           154.9730000    0.076126909656
      1   S       4            44.4553000    0.260801033080
      1   S       5            13.0290000    0.616462078191
      1   S       6             1.8277300    0.221006028032

      2   L       7            20.9642000    0.114660080729    0.040248692673
      2   L       8             4.8033100    0.919999647749    0.237593956746
      2   L       9             1.4593300   -0.003030682134    0.815853851473

      3   L      10             0.4834560    1.000000000000    1.000000000000

      4   L      11             0.1455850    1.000000000000    1.000000000000

      5   D      12             0.6260000    1.000000000000

 CARBON    

      6   S      13          4563.2400000    0.001966650249
      6   S      14           682.0240000    0.015230601932
      6   S      15           154.9730000    0.076126909656
      6   S      16            44.4553000    0.260801033080
      6   S      17            13.0290000    0.616462078191
      6   S      18             1.8277300    0.221006028032

      7   L      19            20.9642000    0.114660080729    0.040248692673
      7   L      20             4.8033100    0.919999647749    0.237593956746
      7   L      21             1.4593300   -0.003030682134    0.815853851473

      8   L      22             0.4834560    1.000000000000    1.000000000000

      9   L      23             0.1455850    1.000000000000    1.000000000000

     10   D      24             0.6260000    1.000000000000

 CARBON    

     11   S      25          4563.2400000    0.001966650249
     11   S      26           682.0240000    0.015230601932
     11   S      27           154.9730000    0.076126909656
     11   S      28            44.4553000    0.260801033080
     11   S      29            13.0290000    0.616462078191
     11   S      30             1.8277300    0.221006028032

     12   L      31            20.9642000    0.114660080729    0.040248692673
     12   L      32             4.8033100    0.919999647749    0.237593956746
     12   L      33             1.4593300   -0.003030682134    0.815853851473

     13   L      34             0.4834560    1.000000000000    1.000000000000

     14   L      35             0.1455850    1.000000000000    1.000000000000

     15   D      36             0.6260000    1.000000000000

 CARBON    

     16   S      37          4563.2400000    0.001966650249
     16   S      38           682.0240000    0.015230601932
     16   S      39           154.9730000    0.076126909656
     16   S      40            44.4553000    0.260801033080
     16   S      41            13.0290000    0.616462078191
     16   S      42             1.8277300    0.221006028032

     17   L      43            20.9642000    0.114660080729    0.040248692673
     17   L      44             4.8033100    0.919999647749    0.237593956746
     17   L      45             1.4593300   -0.003030682134    0.815853851473

     18   L      46             0.4834560    1.000000000000    1.000000000000

     19   L      47             0.1455850    1.000000000000    1.000000000000

     20   D      48             0.6260000    1.000000000000

 CARBON    

     21   S      49          4563.2400000    0.001966650249
     21   S      50           682.0240000    0.015230601932
     21   S      51           154.9730000    0.076126909656
     21   S      52            44.4553000    0.260801033080
     21   S      53            13.0290000    0.616462078191
     21   S      54             1.8277300    0.221006028032

     22   L      55            20.9642000    0.114660080729    0.040248692673
     22   L      56             4.8033100    0.919999647749    0.237593956746
     22   L      57             1.4593300   -0.003030682134    0.815853851473

     23   L      58             0.4834560    1.000000000000    1.000000000000

     24   L      59             0.1455850    1.000000000000    1.000000000000

     25   D      60             0.6260000    1.000000000000

 CARBON    

     26   S      61          4563.2400000    0.001966650249
     26   S      62           682.0240000    0.015230601932
     26   S      63           154.9730000    0.076126909656
     26   S      64            44.4553000    0.260801033080
     26   S      65            13.0290000    0.616462078191
     26   S      66             1.8277300    0.221006028032

     27   L      67            20.9642000    0.114660080729    0.040248692673
     27   L      68             4.8033100    0.919999647749    0.237593956746
     27   L      69             1.4593300   -0.003030682134    0.815853851473

     28   L      70             0.4834560    1.000000000000    1.000000000000

     29   L      71             0.1455850    1.000000000000    1.000000000000

     30   D      72             0.6260000    1.000000000000

 HYDROGEN  

     31   S      73            33.8650000    0.025493814541
     31   S      74             5.0947900    0.190373108582
     31   S      75             1.1587900    0.852161486043

     32   S      76             0.3258400    1.000000000000

     33   S      77             0.1027410    1.000000000000

     34   P      78             0.7500000    1.000000000000

 HYDROGEN  

     35   S      79            33.8650000    0.025493814541
     35   S      80             5.0947900    0.190373108582
     35   S      81             1.1587900    0.852161486043

     36   S      82             0.3258400    1.000000000000

     37   S      83             0.1027410    1.000000000000

     38   P      84             0.7500000    1.000000000000

 HYDROGEN  

     39   S      85            33.8650000    0.025493814541
     39   S      86             5.0947900    0.190373108582
     39   S      87             1.1587900    0.852161486043

     40   S      88             0.3258400    1.000000000000

     41   S      89             0.1027410    1.000000000000

     42   P      90             0.7500000    1.000000000000

 HYDROGEN  

     43   S      91            33.8650000    0.025493814541
     43   S      92             5.0947900    0.190373108582
     43   S      93             1.1587900    0.852161486043

     44   S      94             0.3258400    1.000000000000

     45   S      95             0.1027410    1.000000000000

     46   P      96             0.7500000    1.000000000000

 HYDROGEN  

     47   S      97            33.8650000    0.025493814541
     47   S      98             5.0947900    0.190373108582
     47   S      99             1.1587900    0.852161486043

     48   S     100             0.3258400    1.000000000000

     49   S     101             0.1027410    1.000000000000

     50   P     102             0.7500000    1.000000000000

 CARBON    

     51   S     103          4563.2400000    0.001966650249
     51   S     104           682.0240000    0.015230601932
     51   S     105           154.9730000    0.076126909656
     51   S     106            44.4553000    0.260801033080
     51   S     107            13.0290000    0.616462078191
     51   S     108             1.8277300    0.221006028032

     52   L     109            20.9642000    0.114660080729    0.040248692673
     52   L     110             4.8033100    0.919999647749    0.237593956746
     52   L     111             1.4593300   -0.003030682134    0.815853851473

     53   L     112             0.4834560    1.000000000000    1.000000000000

     54   L     113             0.1455850    1.000000000000    1.000000000000

     55   D     114             0.6260000    1.000000000000

 OXYGEN    

     56   S     115          8588.5000000    0.001895150083
     56   S     116          1297.2300000    0.014385900631
     56   S     117           299.2960000    0.070732003103
     56   S     118            87.3771000    0.240001010530
     56   S     119            25.6789000    0.594797026097
     56   S     120             3.7400400    0.280802012320

     57   L     121            42.1175000    0.113889012440    0.036511397380
     57   L     122             9.6283700    0.920811100576    0.237152982984
     57   L     123             2.8533200   -0.003274470358    0.819701941186

     58   L     124             0.9056610    1.000000000000    1.000000000000

     59   L     125             0.2556110    1.000000000000    1.000000000000

     60   D     126             1.2920000    1.000000000000

 OXYGEN    

     61   S     127          8588.5000000    0.001895150083
     61   S     128          1297.2300000    0.014385900631
     61   S     129           299.2960000    0.070732003103
     61   S     130            87.3771000    0.240001010530
     61   S     131            25.6789000    0.594797026097
     61   S     132             3.7400400    0.280802012320

     62   L     133            42.1175000    0.113889012440    0.036511397380
     62   L     134             9.6283700    0.920811100576    0.237152982984
     62   L     135             2.8533200   -0.003274470358    0.819701941186

     63   L     136             0.9056610    1.000000000000    1.000000000000

     64   L     137             0.2556110    1.000000000000    1.000000000000

     65   D     138             1.2920000    1.000000000000

 OXYGEN    

     66   S     139          8588.5000000    0.001895150083
     66   S     140          1297.2300000    0.014385900631
     66   S     141           299.2960000    0.070732003103
     66   S     142            87.3771000    0.240001010530
     66   S     143            25.6789000    0.594797026097
     66   S     144             3.7400400    0.280802012320

     67   L     145            42.1175000    0.113889012440    0.036511397380
     67   L     146             9.6283700    0.920811100576    0.237152982984
     67   L     147             2.8533200   -0.003274470358    0.819701941186

     68   L     148             0.9056610    1.000000000000    1.000000000000

     69   L     149             0.2556110    1.000000000000    1.000000000000

     70   D     150             1.2920000    1.000000000000

 CARBON    

     71   S     151          4563.2400000    0.001966650249
     71   S     152           682.0240000    0.015230601932
     71   S     153           154.9730000    0.076126909656
     71   S     154            44.4553000    0.260801033080
     71   S     155            13.0290000    0.616462078191
     71   S     156             1.8277300    0.221006028032

     72   L     157            20.9642000    0.114660080729    0.040248692673
     72   L     158             4.8033100    0.919999647749    0.237593956746
     72   L     159             1.4593300   -0.003030682134    0.815853851473

     73   L     160             0.4834560    1.000000000000    1.000000000000

     74   L     161             0.1455850    1.000000000000    1.000000000000

     75   D     162             0.6260000    1.000000000000

 CARBON    

     76   S     163          4563.2400000    0.001966650249
     76   S     164           682.0240000    0.015230601932
     76   S     165           154.9730000    0.076126909656
     76   S     166            44.4553000    0.260801033080
     76   S     167            13.0290000    0.616462078191
     76   S     168             1.8277300    0.221006028032

     77   L     169            20.9642000    0.114660080729    0.040248692673
     77   L     170             4.8033100    0.919999647749    0.237593956746
     77   L     171             1.4593300   -0.003030682134    0.815853851473

     78   L     172             0.4834560    1.000000000000    1.000000000000

     79   L     173             0.1455850    1.000000000000    1.000000000000

     80   D     174             0.6260000    1.000000000000

 CARBON    

     81   S     175          4563.2400000    0.001966650249
     81   S     176           682.0240000    0.015230601932
     81   S     177           154.9730000    0.076126909656
     81   S     178            44.4553000    0.260801033080
     81   S     179            13.0290000    0.616462078191
     81   S     180             1.8277300    0.221006028032

     82   L     181            20.9642000    0.114660080729    0.040248692673
     82   L     182             4.8033100    0.919999647749    0.237593956746
     82   L     183             1.4593300   -0.003030682134    0.815853851473

     83   L     184             0.4834560    1.000000000000    1.000000000000

     84   L     185             0.1455850    1.000000000000    1.000000000000

     85   D     186             0.6260000    1.000000000000

 CARBON    

     86   S     187          4563.2400000    0.001966650249
     86   S     188           682.0240000    0.015230601932
     86   S     189           154.9730000    0.076126909656
     86   S     190            44.4553000    0.260801033080
     86   S     191            13.0290000    0.616462078191
     86   S     192             1.8277300    0.221006028032

     87   L     193            20.9642000    0.114660080729    0.040248692673
     87   L     194             4.8033100    0.919999647749    0.237593956746
     87   L     195             1.4593300   -0.003030682134    0.815853851473

     88   L     196             0.4834560    1.000000000000    1.000000000000

     89   L     197             0.1455850    1.000000000000    1.000000000000

     90   D     198             0.6260000    1.000000000000

 CARBON    

     91   S     199          4563.2400000    0.001966650249
     91   S     200           682.0240000    0.015230601932
     91   S     201           154.9730000    0.076126909656
     91   S     202            44.4553000    0.260801033080
     91   S     203            13.0290000    0.616462078191
     91   S     204             1.8277300    0.221006028032

     92   L     205            20.9642000    0.114660080729    0.040248692673
     92   L     206             4.8033100    0.919999647749    0.237593956746
     92   L     207             1.4593300   -0.003030682134    0.815853851473

     93   L     208             0.4834560    1.000000000000    1.000000000000

     94   L     209             0.1455850    1.000000000000    1.000000000000

     95   D     210             0.6260000    1.000000000000

 HYDROGEN  

     96   S     211            33.8650000    0.025493814541
     96   S     212             5.0947900    0.190373108582
     96   S     213             1.1587900    0.852161486043

     97   S     214             0.3258400    1.000000000000

     98   S     215             0.1027410    1.000000000000

     99   P     216             0.7500000    1.000000000000

 CARBON    

    100   S     217          4563.2400000    0.001966650249
    100   S     218           682.0240000    0.015230601932
    100   S     219           154.9730000    0.076126909656
    100   S     220            44.4553000    0.260801033080
    100   S     221            13.0290000    0.616462078191
    100   S     222             1.8277300    0.221006028032

    101   L     223            20.9642000    0.114660080729    0.040248692673
    101   L     224             4.8033100    0.919999647749    0.237593956746
    101   L     225             1.4593300   -0.003030682134    0.815853851473

    102   L     226             0.4834560    1.000000000000    1.000000000000

    103   L     227             0.1455850    1.000000000000    1.000000000000

    104   D     228             0.6260000    1.000000000000

 HYDROGEN  

    105   S     229            33.8650000    0.025493814541
    105   S     230             5.0947900    0.190373108582
    105   S     231             1.1587900    0.852161486043

    106   S     232             0.3258400    1.000000000000

    107   S     233             0.1027410    1.000000000000

    108   P     234             0.7500000    1.000000000000

 CARBON    

    109   S     235          4563.2400000    0.001966650249
    109   S     236           682.0240000    0.015230601932
    109   S     237           154.9730000    0.076126909656
    109   S     238            44.4553000    0.260801033080
    109   S     239            13.0290000    0.616462078191
    109   S     240             1.8277300    0.221006028032

    110   L     241            20.9642000    0.114660080729    0.040248692673
    110   L     242             4.8033100    0.919999647749    0.237593956746
    110   L     243             1.4593300   -0.003030682134    0.815853851473

    111   L     244             0.4834560    1.000000000000    1.000000000000

    112   L     245             0.1455850    1.000000000000    1.000000000000

    113   D     246             0.6260000    1.000000000000

 HYDROGEN  

    114   S     247            33.8650000    0.025493814541
    114   S     248             5.0947900    0.190373108582
    114   S     249             1.1587900    0.852161486043

    115   S     250             0.3258400    1.000000000000

    116   S     251             0.1027410    1.000000000000

    117   P     252             0.7500000    1.000000000000

 HYDROGEN  

    118   S     253            33.8650000    0.025493814541
    118   S     254             5.0947900    0.190373108582
    118   S     255             1.1587900    0.852161486043

    119   S     256             0.3258400    1.000000000000

    120   S     257             0.1027410    1.000000000000

    121   P     258             0.7500000    1.000000000000

 HYDROGEN  

    122   S     259            33.8650000    0.025493814541
    122   S     260             5.0947900    0.190373108582
    122   S     261             1.1587900    0.852161486043

    123   S     262             0.3258400    1.000000000000

    124   S     263             0.1027410    1.000000000000

    125   P     264             0.7500000    1.000000000000

 OXYGEN    

    126   S     265          8588.5000000    0.001895150083
    126   S     266          1297.2300000    0.014385900631
    126   S     267           299.2960000    0.070732003103
    126   S     268            87.3771000    0.240001010530
    126   S     269            25.6789000    0.594797026097
    126   S     270             3.7400400    0.280802012320

    127   L     271            42.1175000    0.113889012440    0.036511397380
    127   L     272             9.6283700    0.920811100576    0.237152982984
    127   L     273             2.8533200   -0.003274470358    0.819701941186

    128   L     274             0.9056610    1.000000000000    1.000000000000

    129   L     275             0.2556110    1.000000000000    1.000000000000

    130   D     276             1.2920000    1.000000000000

 CARBON    

    131   S     277          4563.2400000    0.001966650249
    131   S     278           682.0240000    0.015230601932
    131   S     279           154.9730000    0.076126909656
    131   S     280            44.4553000    0.260801033080
    131   S     281            13.0290000    0.616462078191
    131   S     282             1.8277300    0.221006028032

    132   L     283            20.9642000    0.114660080729    0.040248692673
    132   L     284             4.8033100    0.919999647749    0.237593956746
    132   L     285             1.4593300   -0.003030682134    0.815853851473

    133   L     286             0.4834560    1.000000000000    1.000000000000

    134   L     287             0.1455850    1.000000000000    1.000000000000

    135   D     288             0.6260000    1.000000000000

 CARBON    

    136   S     289          4563.2400000    0.001966650249
    136   S     290           682.0240000    0.015230601932
    136   S     291           154.9730000    0.076126909656
    136   S     292            44.4553000    0.260801033080
    136   S     293            13.0290000    0.616462078191
    136   S     294             1.8277300    0.221006028032

    137   L     295            20.9642000    0.114660080729    0.040248692673
    137   L     296             4.8033100    0.919999647749    0.237593956746
    137   L     297             1.4593300   -0.003030682134    0.815853851473

    138   L     298             0.4834560    1.000000000000    1.000000000000

    139   L     299             0.1455850    1.000000000000    1.000000000000

    140   D     300             0.6260000    1.000000000000

 CARBON    

    141   S     301          4563.2400000    0.001966650249
    141   S     302           682.0240000    0.015230601932
    141   S     303           154.9730000    0.076126909656
    141   S     304            44.4553000    0.260801033080
    141   S     305            13.0290000    0.616462078191
    141   S     306             1.8277300    0.221006028032

    142   L     307            20.9642000    0.114660080729    0.040248692673
    142   L     308             4.8033100    0.919999647749    0.237593956746
    142   L     309             1.4593300   -0.003030682134    0.815853851473

    143   L     310             0.4834560    1.000000000000    1.000000000000

    144   L     311             0.1455850    1.000000000000    1.000000000000

    145   D     312             0.6260000    1.000000000000

 CARBON    

    146   S     313          4563.2400000    0.001966650249
    146   S     314           682.0240000    0.015230601932
    146   S     315           154.9730000    0.076126909656
    146   S     316            44.4553000    0.260801033080
    146   S     317            13.0290000    0.616462078191
    146   S     318             1.8277300    0.221006028032

    147   L     319            20.9642000    0.114660080729    0.040248692673
    147   L     320             4.8033100    0.919999647749    0.237593956746
    147   L     321             1.4593300   -0.003030682134    0.815853851473

    148   L     322             0.4834560    1.000000000000    1.000000000000

    149   L     323             0.1455850    1.000000000000    1.000000000000

    150   D     324             0.6260000    1.000000000000

 CARBON    

    151   S     325          4563.2400000    0.001966650249
    151   S     326           682.0240000    0.015230601932
    151   S     327           154.9730000    0.076126909656
    151   S     328            44.4553000    0.260801033080
    151   S     329            13.0290000    0.616462078191
    151   S     330             1.8277300    0.221006028032

    152   L     331            20.9642000    0.114660080729    0.040248692673
    152   L     332             4.8033100    0.919999647749    0.237593956746
    152   L     333             1.4593300   -0.003030682134    0.815853851473

    153   L     334             0.4834560    1.000000000000    1.000000000000

    154   L     335             0.1455850    1.000000000000    1.000000000000

    155   D     336             0.6260000    1.000000000000

 CARBON    

    156   S     337          4563.2400000    0.001966650249
    156   S     338           682.0240000    0.015230601932
    156   S     339           154.9730000    0.076126909656
    156   S     340            44.4553000    0.260801033080
    156   S     341            13.0290000    0.616462078191
    156   S     342             1.8277300    0.221006028032

    157   L     343            20.9642000    0.114660080729    0.040248692673
    157   L     344             4.8033100    0.919999647749    0.237593956746
    157   L     345             1.4593300   -0.003030682134    0.815853851473

    158   L     346             0.4834560    1.000000000000    1.000000000000

    159   L     347             0.1455850    1.000000000000    1.000000000000

    160   D     348             0.6260000    1.000000000000

 HYDROGEN  

    161   S     349            33.8650000    0.025493814541
    161   S     350             5.0947900    0.190373108582
    161   S     351             1.1587900    0.852161486043

    162   S     352             0.3258400    1.000000000000

    163   S     353             0.1027410    1.000000000000

    164   P     354             0.7500000    1.000000000000

 HYDROGEN  

    165   S     355            33.8650000    0.025493814541
    165   S     356             5.0947900    0.190373108582
    165   S     357             1.1587900    0.852161486043

    166   S     358             0.3258400    1.000000000000

    167   S     359             0.1027410    1.000000000000

    168   P     360             0.7500000    1.000000000000

 HYDROGEN  

    169   S     361            33.8650000    0.025493814541
    169   S     362             5.0947900    0.190373108582
    169   S     363             1.1587900    0.852161486043

    170   S     364             0.3258400    1.000000000000

    171   S     365             0.1027410    1.000000000000

    172   P     366             0.7500000    1.000000000000

 HYDROGEN  

    173   S     367            33.8650000    0.025493814541
    173   S     368             5.0947900    0.190373108582
    173   S     369             1.1587900    0.852161486043

    174   S     370             0.3258400    1.000000000000

    175   S     371             0.1027410    1.000000000000

    176   P     372             0.7500000    1.000000000000

 CARBON    

    177   S     373          4563.2400000    0.001966650249
    177   S     374           682.0240000    0.015230601932
    177   S     375           154.9730000    0.076126909656
    177   S     376            44.4553000    0.260801033080
    177   S     377            13.0290000    0.616462078191
    177   S     378             1.8277300    0.221006028032

    178   L     379            20.9642000    0.114660080729    0.040248692673
    178   L     380             4.8033100    0.919999647749    0.237593956746
    178   L     381             1.4593300   -0.003030682134    0.815853851473

    179   L     382             0.4834560    1.000000000000    1.000000000000

    180   L     383             0.1455850    1.000000000000    1.000000000000

    181   D     384             0.6260000    1.000000000000

 CARBON    

    182   S     385          4563.2400000    0.001966650249
    182   S     386           682.0240000    0.015230601932
    182   S     387           154.9730000    0.076126909656
    182   S     388            44.4553000    0.260801033080
    182   S     389            13.0290000    0.616462078191
    182   S     390             1.8277300    0.221006028032

    183   L     391            20.9642000    0.114660080729    0.040248692673
    183   L     392             4.8033100    0.919999647749    0.237593956746
    183   L     393             1.4593300   -0.003030682134    0.815853851473

    184   L     394             0.4834560    1.000000000000    1.000000000000

    185   L     395             0.1455850    1.000000000000    1.000000000000

    186   D     396             0.6260000    1.000000000000

 HYDROGEN  

    187   S     397            33.8650000    0.025493814541
    187   S     398             5.0947900    0.190373108582
    187   S     399             1.1587900    0.852161486043

    188   S     400             0.3258400    1.000000000000

    189   S     401             0.1027410    1.000000000000

    190   P     402             0.7500000    1.000000000000

 NITROGEN  

    191   S     403          6293.4800000    0.001969788147
    191   S     404           949.0440000    0.014961285923
    191   S     405           218.7760000    0.073500530843
    191   S     406            63.6916000    0.248936765774
    191   S     407            18.8282000    0.602459433142
    191   S     408             2.7202300    0.256201758938

    192   L     409            30.6331000    0.111906079519    0.038311918640
    192   L     410             7.0261400    0.921666654920    0.237403115502
    192   L     411             2.1120500   -0.002569191826    0.817592397779

    193   L     412             0.6840090    1.000000000000    1.000000000000

    194   L     413             0.2008780    1.000000000000    1.000000000000

    195   D     414             0.9130000    1.000000000000

 OXYGEN    

    196   S     415          8588.5000000    0.001895150083
    196   S     416          1297.2300000    0.014385900631
    196   S     417           299.2960000    0.070732003103
    196   S     418            87.3771000    0.240001010530
    196   S     419            25.6789000    0.594797026097
    196   S     420             3.7400400    0.280802012320

    197   L     421            42.1175000    0.113889012440    0.036511397380
    197   L     422             9.6283700    0.920811100576    0.237152982984
    197   L     423             2.8533200   -0.003274470358    0.819701941186

    198   L     424             0.9056610    1.000000000000    1.000000000000

    199   L     425             0.2556110    1.000000000000    1.000000000000

    200   D     426             1.2920000    1.000000000000

 NITROGEN  

    201   S     427          6293.4800000    0.001969788147
    201   S     428           949.0440000    0.014961285923
    201   S     429           218.7760000    0.073500530843
    201   S     430            63.6916000    0.248936765774
    201   S     431            18.8282000    0.602459433142
    201   S     432             2.7202300    0.256201758938

    202   L     433            30.6331000    0.111906079519    0.038311918640
    202   L     434             7.0261400    0.921666654920    0.237403115502
    202   L     435             2.1120500   -0.002569191826    0.817592397779

    203   L     436             0.6840090    1.000000000000    1.000000000000

    204   L     437             0.2008780    1.000000000000    1.000000000000

    205   D     438             0.9130000    1.000000000000

 HYDROGEN  

    206   S     439            33.8650000    0.025493814541
    206   S     440             5.0947900    0.190373108582
    206   S     441             1.1587900    0.852161486043

    207   S     442             0.3258400    1.000000000000

    208   S     443             0.1027410    1.000000000000

    209   P     444             0.7500000    1.000000000000

 TOTAL NUMBER OF BASIS SET SHELLS             =  209
 NUMBER OF CARTESIAN GAUSSIAN BASIS FUNCTIONS =  647
 NOTE: THIS RUN WILL RESTRICT THE MO VARIATION SPACE TO SPHERICAL HARMONICS.
 THE NUMBER OF ORBITALS KEPT IN THE VARIATIONAL SPACE WILL BE PRINTED LATER.
 NUMBER OF ELECTRONS                          =  202
 CHARGE OF MOLECULE                           =    0
 SPIN MULTIPLICITY                            =    3
 NUMBER OF OCCUPIED ORBITALS (ALPHA)          =  102
 NUMBER OF OCCUPIED ORBITALS (BETA )          =  100
 TOTAL NUMBER OF ATOMS                        =   45
 THE NUCLEAR REPULSION ENERGY IS     2674.2557723298

 SELECTED MURRAY-HANDY-LAMING RADIAL GRID

 LEGACY BECKE'S FUZZY CELL METHOD

 SELECTED ORIGINAL BECKE'S PARTITION FUNCTION

     LEBEDEV GRID-BASED DFT OPTIONS
     ------------------------------
     DFTTYP=B3LYP   
     NRAD  =      96     NLEB  =     302
     NRAD0 =      24     NLEB0 =     110
     SWOFF =    5.00E-03 (PURE SCF -> DFT)
     SWITCH=    3.00E-04 (COARSE -> TIGHT GRID)
     THRESH=    0.00E+00 GTHRE=    1.00E+00

 GRIMME'S EMPIRICAL DISPERSION CORRECTION= F

     $CONTRL OPTIONS
     ---------------
 SCFTYP=ROHF         RUNTYP=OPTIMIZE     EXETYP=RUN     
 MPLEVL=       0     CITYP =NONE         CCTYP =NONE         VBTYP =NONE    
 DFTTYP=B3LYP        TDDFT =MRSF    
 MULT  =       3     ICHARG=       0     NZVAR =       0     COORD =UNIQUE  
 PP    =NONE         RELWFN=NONE         LOCAL =NONE         NUMGRD=       F
 ISPHER=       1     NOSYM =       0     MAXIT =     200     UNITS =ANGS    
 PLTORB=       F     MOLPLT=       F     AIMPAC=       F     FRIEND=        
 NPRINT=      -5     IREST =       0     GEOM  =INPUT   
 NORMF =       0     NORMP =       0     ITOL  =      20     ICUT  =       9
 INTTYP=BEST         GRDTYP=BEST         QMTTOL= 1.0E-06

     $SYSTEM OPTIONS
     ---------------
  REPLICATED MEMORY=   200000000 WORDS (ON EVERY NODE).
 DISTRIBUTED MEMDDI=           0 MILLION WORDS IN AGGREGATE,
 MEMDDI DISTRIBUTED OVER  64 PROCESSORS IS           0 WORDS/PROCESSOR.
 TOTAL MEMORY REQUESTED ON EACH PROCESSOR=   200000000 WORDS.
 TIMLIM=      525600.00 MINUTES, OR     365.0 DAYS.
 PARALL= T  BALTYP=  DLB     KDIAG=    0  COREFL= F
 MXSEQ2=     300 MXSEQ3=     150  mem10=         0  mem22=         0

          ----------------
          PROPERTIES INPUT
          ----------------

     MOMENTS            FIELD           POTENTIAL          DENSITY
 IEMOM =       1   IEFLD =       0   IEPOT =       0   IEDEN =       0
 WHERE =COMASS     WHERE =NUCLEI     WHERE =NUCLEI     WHERE =NUCLEI  
 OUTPUT=BOTH       OUTPUT=BOTH       OUTPUT=BOTH       OUTPUT=BOTH    
 IEMINT=       0   IEFINT=       0                     IEDINT=       0
                                                       MORB  =       0
          EXTRAPOLATION IN EFFECT
          DIIS IN EFFECT
 ORBITAL PRINTING OPTION: NPREO=     1   647     2     1

     -------------------------------
[...]
  87 86    -1333.0310408277    -0.0004230689   0.000448833   0.000343156     2930647965  213102074
  88 87    -1333.0310384553     0.0000023724   0.008193717   0.000274966     2253491830  221322004
  89 88    -1333.0309922221     0.0000462332   0.003168933   0.000209442     2695587117  216161775
  90 89    -1333.0309711111     0.0000211110   0.005085958   0.000452470     2558098768  217908171
  91 90    -1333.0310043654    -0.0000332543   0.005089505   0.000194779     2642697949  216891498
  92 91    -1333.0310327222    -0.0000283568   0.001898922   0.000216142     2605642944  217272325
  93 92    -1333.0310230120     0.0000097102   0.000753413   0.000202980     2400099414  219630756
  94 93    -1333.0310182129     0.0000047991   0.002527862   0.000186133     2252518495  221276174
  95 94    -1333.0310303252    -0.0000121123   0.011894378   0.000301502     2466811791  218913825
  96 95    -1333.0309557725     0.0000745527   0.004511165   0.000858592     2790144548  215031856
  97 96    -1333.0309202967     0.0000354757   0.000845031   0.000986702     2609480101  217322643
  98 97    -1333.0309312716    -0.0000109749   0.001004034   0.000868777     2332333042  220505078
  99 98    -1333.0309248527     0.0000064189   0.000855090   0.000821801     2344485763  220358522
 100 99    -1333.0309333602    -0.0000085075   0.004393663   0.000747471     2267984443  221138165
 101100    -1333.0309709906    -0.0000376303   0.002328982   0.000165471     2618053350  217245831
 102101    -1333.0309842291    -0.0000132385   0.004336016   0.000149841     2516476758  218458650
 103102    -1333.0309616620     0.0000225671   0.006394381   0.000177817     2592871043  217466289
 104103    -1333.0309195033     0.0000421588   0.010218211   0.000380887     2646279577  216834733
 105104    -1333.0309830422    -0.0000635389   0.003842064   0.000314219     2744243199  215619345
 106105    -1333.0310016370    -0.0000185948   0.003135397   0.000152467     2571054455  217734953
 107106    -1333.0310172186    -0.0000155816   0.007753117   0.000193153     2524586831  218246930
 108107    -1333.0310434786    -0.0000262600   0.001871942   0.000958246     2681847322  216398235
 109108    -1333.0310467954    -0.0000033168   0.000925487   0.001187508     2416078271  219511607
 110109    -1333.0310501738    -0.0000033784   0.002650716   0.001280962     2274136146  221046111
 111110    -1333.0310343014     0.0000158724   0.000136335   0.001889771     2471867078  218888386
 112111    -1333.0310306134     0.0000036880   0.003042272   0.001968405     1932733854  224608037
 113112    -1333.0310492953    -0.0000186819   0.018116019   0.001228586     2485427286  218676558
 114113    -1333.0309753889     0.0000739065   0.000250573   0.000342222     2837044064  214375263
 115114    -1333.0309756038    -0.0000002150   0.001875642   0.000315894     2095004890  223023417
 116115    -1333.0309653380     0.0000102658   0.000656997   0.000283138     2461753288  219020426
 117116    -1333.0309645024     0.0000008356   0.003988734   0.000191367     2309657645  220723289
 118117    -1333.0309432801     0.0000212223   0.003138693   0.000286611     2603582022  217485571
 119118    -1333.0309268464     0.0000164337   0.008182922   0.000376641     2492537316  218715167
 120119    -1333.0309738104    -0.0000469640   0.003163459   0.000256427     2711572389  216088902
 121120    -1333.0309896121    -0.0000158017   0.006918834   0.000347272     2578584959  217775163
 122121    -1333.0310255755    -0.0000359633   0.009169427   0.000202722     2682411093  216415722
 123122    -1333.0310429697    -0.0000173943   0.000957104   0.001433201     2698022997  216151923
 124123    -1333.0310462367    -0.0000032669   0.002894079   0.001228298     2242354768  221330717
 125124    -1333.0310311488     0.0000150878   0.007106945   0.001857002     2469621962  218854573
 126125    -1333.0310427198    -0.0000115710   0.007378805   0.000456559     2649909200  216755284
 127126    -1333.0310278713     0.0000148485   0.004059311   0.001974226     2653365679  216699925
 128127    -1333.0310469274    -0.0000190561   0.012529979   0.001009300     2542974698  218026264
 129128    -1333.0309947827     0.0000521446   0.001102608   0.000615513     2774603675  215250976
 130129    -1333.0310013863    -0.0000066035   0.002483793   0.000639738     2398182928  219763885
 131130    -1333.0310160877    -0.0000147014   0.001167723   0.000672145     2517635458  218434960
 132131    -1333.0310233014    -0.0000072138   0.000733107   0.000641809     2365810366  220128529
 133132    -1333.0310300246    -0.0000067231   0.001751103   0.000436516     2282482600  220985840
 134133    -1333.0310348992    -0.0000048746   0.001446432   0.000799457     2428696151  219412040
 135134    -1333.0310474478    -0.0000125487   0.001391815   0.000786770     2421325217  219542381
 136135    -1333.0310579371    -0.0000104893   0.005706262   0.000687768     2417828143  219586284
 137136    -1333.0310230266     0.0000349105   0.001544939   0.000244666     2650901600  216837197
 138137    -1333.0310154401     0.0000075865   0.000303008   0.000122372     2457377790  219139595
 139138    -1333.0310136946     0.0000017455   0.000620716   0.000123621     2142123241  222452355
 140139    -1333.0310098341     0.0000038605   0.000376464   0.000122152     2205910728  221734374
 141140    -1333.0310073224     0.0000025117   0.000861972   0.000126255     2159131601  222316436
 142141    -1333.0310014534     0.0000058690   0.001624909   0.000188191     2353615654  220247577
 143142    -1333.0309892047     0.0000122487   0.004176796   0.000391467     2448206553  219169483
 144143    -1333.0310177258    -0.0000285211   0.000328471   0.000135000     2597881575  217415123
 145144    -1333.0310185053    -0.0000007796   0.001428037   0.000136883     2074185111  223167126
 146145    -1333.0310123249     0.0000061805   0.007057995   0.000224305     2335306762  220347872
 147146    -1333.0309733667     0.0000389581   0.005776732   0.000172337     2689801778  216276421
 148147    -1333.0309358551     0.0000375116   0.024240821   0.000331197     2632299736  216970318
 149148    -1333.0310476692    -0.0001118141   0.011004339   0.001442888     2894257832  213578244
 150149    -1333.0310172750     0.0000303942   0.006186006   0.000180024     2734491493  215684139
 151150    -1333.0310419753    -0.0000247003   0.004885751   0.000673341     2630111697  216983458
 152151    -1333.0310348349     0.0000071404   0.010010942   0.001614207     2571279854  217670193
 153152    -1333.0308119230     0.0002229120   0.000297848   0.004537910     2710346065  215977663
 154153    -1333.0307955977     0.0000163253   0.009309965   0.004669530     2026437067  223653855
 155154    -1333.0310496584    -0.0002540607   0.011641236   0.001489621     2697670324  216180001
 156155    -1333.0306889187     0.0003607397   0.006648769   0.005463710     2744107168  215586677
 157156    -1333.0299753609     0.0007135578   0.031337176   0.008832081     2648632273  216795569
 158157    -1333.0310090131    -0.0010336522   0.001810958   0.000530776     2915982762  213256344
 159158    -1333.0310116782    -0.0000026651   0.002397809   0.000875126     2424522386  219411336
 160159    -1333.0310078664     0.0000038118   0.000657622   0.000353285     2478865294  218838551
 161160    -1333.0310091385    -0.0000012721   0.004381278   0.000538617     2312698625  220808015
 162161    -1333.0309877975     0.0000213409   0.005312384   0.000269523     2625967404  217151236
 163162    -1333.0309376454     0.0000501521   0.006473916   0.000947522     2659787417  216668012
 164163    -1333.0308461137     0.0000915317   0.022092915   0.002587019     2563782167  217878946
 165164    -1333.0309153153    -0.0000692016   0.002361516   0.003299443     2871203877  213876339
 166165    -1333.0308562729     0.0000590424   0.023728805   0.003749437     2461639208  219044293
 167166    -1333.0309259204    -0.0000696475   0.016680702   0.001213160     2875951284  213811970
 168167    -1333.0310500867    -0.0001241664   0.009532032   0.000868584     2834985302  214377337
 169168    -1333.0309749690     0.0000751177   0.002687354   0.003011900     2725795781  215868080
 170169    -1333.0310676612    -0.0000926922   0.001385534   0.001743289     2445657911  219210937
 171170    -1333.0310797995    -0.0000121382   0.008899684   0.001658200     2367514258  220116174
 172171    -1333.0310390067     0.0000407928   0.007580828   0.001499205     2715150710  216117426
 173172    -1333.0310082176     0.0000307890   0.007059996   0.001021056     2718081086  216053839
 174173    -1333.0309210210     0.0000871966   0.004308931   0.002212015     2643046345  216916297
 175174    -1333.0310083584    -0.0000873373   0.002216897   0.000113207     2506140764  218561065
 176175    -1333.0309910799     0.0000172785   0.003250477   0.000495289     2464065697  218914534
 177176    -1333.0309576619     0.0000334179   0.006816962   0.001043685     2544082190  217992958
 178177    -1333.0310105198    -0.0000528578   0.006262003   0.000446155     2676276768  216404600
 179178    -1333.0310336446    -0.0000231248   0.001655103   0.000959692     2628234484  216976003
 180179    -1333.0310359406    -0.0000022960   0.000870386   0.001167659     2361985517  220045140
 181180    -1333.0310446863    -0.0000087457   0.000856083   0.001072182     2232874548  221463244
 182181    -1333.0310518857    -0.0000071994   0.000328770   0.000728988     2214686603  221695613
 183182    -1333.0310478389     0.0000040468   0.010032827   0.000800501     2035159082  223556112
 184183    -1333.0309845345     0.0000633044   0.001137806   0.000807058     2727401642  215741280
 185184    -1333.0309834800     0.0000010544   0.000596270   0.001028632     2284679169  220890873
 186185    -1333.0309764311     0.0000070489   0.003997563   0.001174162     2252523971  221265701
 187186    -1333.0309710652     0.0000053659   0.001902094   0.000753957     2550790697  217946954
 188187    -1333.0309822900    -0.0000112248   0.002676238   0.000191166     2332312072  220542525
 189188    -1333.0309692190     0.0000130709   0.002509411   0.000213495     2534026596  218217242
 190189    -1333.0309482962     0.0000209229   0.001204250   0.000442581     2518348557  218395306
 191190    -1333.0309419201     0.0000063760   0.003457859   0.000409220     2304206863  220690528
 192191    -1333.0309061956     0.0000357245   0.009281436   0.000827148     2536148773  218163161
 193192    -1333.0309794303    -0.0000732346   0.007378364   0.000240433     2728458569  215803787
 194193    -1333.0310151203    -0.0000356901   0.002906918   0.000210365     2692809893  216289328
 195194    -1333.0310279645    -0.0000128441   0.000201650   0.000365688     2477830714  218739348
 196195    -1333.0310275818     0.0000003827   0.003576596   0.000347829     1958269078  224254191
 197196    -1333.0310123569     0.0000152249   0.006873068   0.000190032     2551721793  217973223
 198197    -1333.0310406912    -0.0000283343   0.012418704   0.000666082     2663540340  216616722
 199198    -1333.0309838291     0.0000568621   0.016491845   0.000401966     2767141738  215281962
 200199    -1333.0310434835    -0.0000596544   0.017481811   0.001344434     2816953741  214643052

 SCF IS UNCONVERGED, TOO MANY ITERATIONS
     TIME TO FORM FOCK OPERATORS=     394.6 SECONDS (       2.0 SEC/ITER)
     FOCK TIME ON FIRST ITERATION=       1.6, LAST ITERATION=       2.2
     TIME TO SOLVE SCF EQUATIONS=     148.3 SECONDS (       0.7 SEC/ITER)

 FINAL RO-B3LYP ENERGY IS        0.0000000000 AFTER 200 ITERATIONS
 DFT EXCHANGE + CORRELATION ENERGY =      -146.7720675032
 TOTAL ELECTRON NUMBER             =       202.0001177453

          --------------------
          SPIN SZ   =    1.000
          S-SQUARED =    2.000
          --------------------
 ...... END OF ROHF CALCULATION ......
 CPU     0: STEP CPU TIME=   544.37 TOTAL CPU TIME=      23144.7 (    385.7 MIN)
 TOTAL WALL CLOCK TIME=      26122.6 SECONDS, CPU UTILIZATION IS    88.60%

 SCF DID NOT CONVERGE...NO TDDFT=MRSF     CALCULATION
 EXECUTION OF GAMESS TERMINATED -ABNORMALLY- AT 21:25:33 04-MAR-2024    
              99645655  WORDS OF DYNAMIC MEMORY USED
 CPU     0: STEP CPU TIME=     0.01 TOTAL CPU TIME=      23144.7 (    385.7 MIN)
 TOTAL WALL CLOCK TIME=      26124.0 SECONDS, CPU UTILIZATION IS    88.60%
 ddikick.x: application process 30 quit unexpectedly.
 ddikick.x: Sending kill signal to DDI processes.
 ddikick.x: Execution terminated due to error(s).
----- accounting info -----
Files used on the parent node cn18 were:
-rw-r--r-- 1 nizg2020 grpnizhg 51690958 Mar  4 21:25 /user/nizg2020/scratch/gamess/quinoxalin-BPO.dat
-rw-r--r-- 1 nizg2020 grpnizhg     3817 Mar  4 14:10 /user/nizg2020/scratch/gamess/quinoxalin-BPO.F05
-rw-r--r-- 1 nizg2020 grpnizhg 86838880 Mar  4 21:25 /user/nizg2020/scratch/gamess/quinoxalin-BPO.F10
-rw-r--r-- 1 nizg2020 grpnizhg 11390568 Mar  4 21:12 /user/nizg2020/scratch/gamess/quinoxalin-BPO.F22
-rw-r--r-- 1 nizg2020 grpnizhg 11390568 Mar  4 21:12 /user/nizg2020/scratch/gamess/quinoxalin-BPO.F22.001
-rw-r--r-- 1 nizg2020 grpnizhg 11390568 Mar  4 21:12 /user/nizg2020/scratch/gamess/quinoxalin-BPO.F22.002
-rw-r--r-- 1 nizg2020 grpnizhg 11390568 Mar  4 21:12 /user/nizg2020/scratch/gamess/quinoxalin-BPO.F22.003
-rw-r--r-- 1 nizg2020 grpnizhg 11390568 Mar  4 21:12 /user/nizg2020/scratch/gamess/quinoxalin-BPO.F22.004
-rw-r--r-- 1 nizg2020 grpnizhg 11390568 Mar  4 21:12 /user/nizg2020/scratch/gamess/quinoxalin-BPO.F22.005
-rw-r--r-- 1 nizg2020 grpnizhg 11390568 Mar  4 21:12 /user/nizg2020/scratch/gamess/quinoxalin-BPO.F22.006
-rw-r--r-- 1 nizg2020 grpnizhg 11390568 Mar  4 21:12 /user/nizg2020/scratch/gamess/quinoxalin-BPO.F22.007
-rw-r--r-- 1 nizg2020 grpnizhg 11390568 Mar  4 21:12 /user/nizg2020/scratch/gamess/quinoxalin-BPO.F22.008
-rw-r--r-- 1 nizg2020 grpnizhg 11390568 Mar  4 21:12 /user/nizg2020/scratch/gamess/quinoxalin-BPO.F22.009
-rw-r--r-- 1 nizg2020 grpnizhg 11390568 Mar  4 21:12 /user/nizg2020/scratch/gamess/quinoxalin-BPO.F22.010
-rw-r--r-- 1 nizg2020 grpnizhg 11390568 Mar  4 21:12 /user/nizg2020/scratch/gamess/quinoxalin-BPO.F22.011
-rw-r--r-- 1 nizg2020 grpnizhg 11390568 Mar  4 21:12 /user/nizg2020/scratch/gamess/quinoxalin-BPO.F22.012
-rw-r--r-- 1 nizg2020 grpnizhg 11390568 Mar  4 21:12 /user/nizg2020/scratch/gamess/quinoxalin-BPO.F22.013
-rw-r--r-- 1 nizg2020 grpnizhg 11390568 Mar  4 21:12 /user/nizg2020/scratch/gamess/quinoxalin-BPO.F22.014
-rw-r--r-- 1 nizg2020 grpnizhg 11390568 Mar  4 21:12 /user/nizg2020/scratch/gamess/quinoxalin-BPO.F22.015
-rw-r--r-- 1 nizg2020 grpnizhg 11390568 Mar  4 21:12 /user/nizg2020/scratch/gamess/quinoxalin-BPO.F22.016
-rw-r--r-- 1 nizg2020 grpnizhg 11390568 Mar  4 21:12 /user/nizg2020/scratch/gamess/quinoxalin-BPO.F22.017
-rw-r--r-- 1 nizg2020 grpnizhg 11390568 Mar  4 21:12 /user/nizg2020/scratch/gamess/quinoxalin-BPO.F22.018
-rw-r--r-- 1 nizg2020 grpnizhg 11390568 Mar  4 21:12 /user/nizg2020/scratch/gamess/quinoxalin-BPO.F22.019
-rw-r--r-- 1 nizg2020 grpnizhg 11390568 Mar  4 21:12 /user/nizg2020/scratch/gamess/quinoxalin-BPO.F22.020
-rw-r--r-- 1 nizg2020 grpnizhg 11390568 Mar  4 21:12 /user/nizg2020/scratch/gamess/quinoxalin-BPO.F22.021
-rw-r--r-- 1 nizg2020 grpnizhg 11390568 Mar  4 21:12 /user/nizg2020/scratch/gamess/quinoxalin-BPO.F22.022
-rw-r--r-- 1 nizg2020 grpnizhg 11390568 Mar  4 21:12 /user/nizg2020/scratch/gamess/quinoxalin-BPO.F22.023
-rw-r--r-- 1 nizg2020 grpnizhg 11390568 Mar  4 21:12 /user/nizg2020/scratch/gamess/quinoxalin-BPO.F22.024
-rw-r--r-- 1 nizg2020 grpnizhg 11390568 Mar  4 21:12 /user/nizg2020/scratch/gamess/quinoxalin-BPO.F22.025
-rw-r--r-- 1 nizg2020 grpnizhg 11390568 Mar  4 21:12 /user/nizg2020/scratch/gamess/quinoxalin-BPO.F22.026
-rw-r--r-- 1 nizg2020 grpnizhg 11390568 Mar  4 21:12 /user/nizg2020/scratch/gamess/quinoxalin-BPO.F22.027
-rw-r--r-- 1 nizg2020 grpnizhg 11390568 Mar  4 21:12 /user/nizg2020/scratch/gamess/quinoxalin-BPO.F22.028
-rw-r--r-- 1 nizg2020 grpnizhg 11390568 Mar  4 21:12 /user/nizg2020/scratch/gamess/quinoxalin-BPO.F22.029
-rw-r--r-- 1 nizg2020 grpnizhg 11390568 Mar  4 21:12 /user/nizg2020/scratch/gamess/quinoxalin-BPO.F22.030
-rw-r--r-- 1 nizg2020 grpnizhg 11390568 Mar  4 21:12 /user/nizg2020/scratch/gamess/quinoxalin-BPO.F22.031
-rw-r--r-- 1 nizg2020 grpnizhg 11390568 Mar  4 21:12 /user/nizg2020/scratch/gamess/quinoxalin-BPO.F22.032
-rw-r--r-- 1 nizg2020 grpnizhg 11390568 Mar  4 21:12 /user/nizg2020/scratch/gamess/quinoxalin-BPO.F22.033
-rw-r--r-- 1 nizg2020 grpnizhg 11390568 Mar  4 21:12 /user/nizg2020/scratch/gamess/quinoxalin-BPO.F22.034
-rw-r--r-- 1 nizg2020 grpnizhg 11390568 Mar  4 21:12 /user/nizg2020/scratch/gamess/quinoxalin-BPO.F22.035
-rw-r--r-- 1 nizg2020 grpnizhg 11390568 Mar  4 21:12 /user/nizg2020/scratch/gamess/quinoxalin-BPO.F22.036
-rw-r--r-- 1 nizg2020 grpnizhg 11390568 Mar  4 21:12 /user/nizg2020/scratch/gamess/quinoxalin-BPO.F22.037
-rw-r--r-- 1 nizg2020 grpnizhg 11390568 Mar  4 21:12 /user/nizg2020/scratch/gamess/quinoxalin-BPO.F22.038
-rw-r--r-- 1 nizg2020 grpnizhg 11390568 Mar  4 21:12 /user/nizg2020/scratch/gamess/quinoxalin-BPO.F22.039
-rw-r--r-- 1 nizg2020 grpnizhg 11390568 Mar  4 21:12 /user/nizg2020/scratch/gamess/quinoxalin-BPO.F22.040
-rw-r--r-- 1 nizg2020 grpnizhg 11390568 Mar  4 21:12 /user/nizg2020/scratch/gamess/quinoxalin-BPO.F22.041
-rw-r--r-- 1 nizg2020 grpnizhg 11390568 Mar  4 21:12 /user/nizg2020/scratch/gamess/quinoxalin-BPO.F22.042
-rw-r--r-- 1 nizg2020 grpnizhg 11390568 Mar  4 21:12 /user/nizg2020/scratch/gamess/quinoxalin-BPO.F22.043
-rw-r--r-- 1 nizg2020 grpnizhg 11390568 Mar  4 21:12 /user/nizg2020/scratch/gamess/quinoxalin-BPO.F22.044
-rw-r--r-- 1 nizg2020 grpnizhg 11390568 Mar  4 21:12 /user/nizg2020/scratch/gamess/quinoxalin-BPO.F22.045
-rw-r--r-- 1 nizg2020 grpnizhg 11390568 Mar  4 21:12 /user/nizg2020/scratch/gamess/quinoxalin-BPO.F22.046
-rw-r--r-- 1 nizg2020 grpnizhg 11390568 Mar  4 21:12 /user/nizg2020/scratch/gamess/quinoxalin-BPO.F22.047
-rw-r--r-- 1 nizg2020 grpnizhg 11390568 Mar  4 21:12 /user/nizg2020/scratch/gamess/quinoxalin-BPO.F22.048
-rw-r--r-- 1 nizg2020 grpnizhg 11390568 Mar  4 21:12 /user/nizg2020/scratch/gamess/quinoxalin-BPO.F22.049
-rw-r--r-- 1 nizg2020 grpnizhg 11390568 Mar  4 21:12 /user/nizg2020/scratch/gamess/quinoxalin-BPO.F22.050
-rw-r--r-- 1 nizg2020 grpnizhg 11390568 Mar  4 21:12 /user/nizg2020/scratch/gamess/quinoxalin-BPO.F22.051
-rw-r--r-- 1 nizg2020 grpnizhg 11390568 Mar  4 21:12 /user/nizg2020/scratch/gamess/quinoxalin-BPO.F22.052
-rw-r--r-- 1 nizg2020 grpnizhg 11390568 Mar  4 21:12 /user/nizg2020/scratch/gamess/quinoxalin-BPO.F22.053
-rw-r--r-- 1 nizg2020 grpnizhg 11390568 Mar  4 21:12 /user/nizg2020/scratch/gamess/quinoxalin-BPO.F22.054
-rw-r--r-- 1 nizg2020 grpnizhg 11390568 Mar  4 21:12 /user/nizg2020/scratch/gamess/quinoxalin-BPO.F22.055
-rw-r--r-- 1 nizg2020 grpnizhg 11390568 Mar  4 21:12 /user/nizg2020/scratch/gamess/quinoxalin-BPO.F22.056
-rw-r--r-- 1 nizg2020 grpnizhg 11390568 Mar  4 21:12 /user/nizg2020/scratch/gamess/quinoxalin-BPO.F22.057
-rw-r--r-- 1 nizg2020 grpnizhg 11390568 Mar  4 21:12 /user/nizg2020/scratch/gamess/quinoxalin-BPO.F22.058
-rw-r--r-- 1 nizg2020 grpnizhg 11390568 Mar  4 21:12 /user/nizg2020/scratch/gamess/quinoxalin-BPO.F22.059
-rw-r--r-- 1 nizg2020 grpnizhg 11390568 Mar  4 21:12 /user/nizg2020/scratch/gamess/quinoxalin-BPO.F22.060
-rw-r--r-- 1 nizg2020 grpnizhg 11390568 Mar  4 21:12 /user/nizg2020/scratch/gamess/quinoxalin-BPO.F22.061
-rw-r--r-- 1 nizg2020 grpnizhg 11390568 Mar  4 21:12 /user/nizg2020/scratch/gamess/quinoxalin-BPO.F22.062
-rw-r--r-- 1 nizg2020 grpnizhg 11390568 Mar  4 21:12 /user/nizg2020/scratch/gamess/quinoxalin-BPO.F22.063
-rw-r--r-- 1 nizg2020 grpnizhg   130880 Mar  4 14:10 /user/nizg2020/scratch/gamess/quinoxalin-BPO.F26R
-rw-r--r-- 1 nizg2020 grpnizhg        0 Mar  4 14:10 /user/nizg2020/scratch/gamess/quinoxalin-BPO.F27R
Mon Mar  4 21:25:42 CST 2024
0.127u 0.131s 7:15:33.08 0.0%	0+0k 536+1488io 4pf+0w
